r 1.01668 2 3 cbr 210 ------- 0 0.0 3.0 0 0
r 1.02043 2 3 cbr 210 ------- 0 0.0 3.0 1 1
r 1.02418 2 3 cbr 210 ------- 0 0.0 3.0 2 2
r 1.02793 2 3 cbr 210 ------- 0 0.0 3.0 3 3
r 1.03168 2 3 cbr 210 ------- 0 0.0 3.0 4 4
r 1.03543 2 3 cbr 210 ------- 0 0.0 3.0 5 5
r 1.03918 2 3 cbr 210 ------- 0 0.0 3.0 6 6
r 1.04293 2 3 cbr 210 ------- 0 0.0 3.0 7 7
r 1.04668 2 3 cbr 210 ------- 0 0.0 3.0 8 8
r 1.05043 2 3 cbr 210 ------- 0 0.0 3.0 9 9
r 1.05418 2 3 cbr 210 ------- 0 0.0 3.0 10 10
r 1.05793 2 3 cbr 210 ------- 0 0.0 3.0 11 11
r 1.06168 2 3 cbr 210 ------- 0 0.0 3.0 12 12
r 1.06543 2 3 cbr 210 ------- 0 0.0 3.0 13 13
r 1.06918 2 3 cbr 210 ------- 0 0.0 3.0 14 14
r 1.07293 2 3 cbr 210 ------- 0 0.0 3.0 15 15
r 1.07668 2 3 cbr 210 ------- 0 0.0 3.0 16 16
r 1.08043 2 3 cbr 210 ------- 0 0.0 3.0 17 17
r 1.08418 2 3 cbr 210 ------- 0 0.0 3.0 18 18
r 1.08793 2 3 cbr 210 ------- 0 0.0 3.0 19 19
r 1.09168 2 3 cbr 210 ------- 0 0.0 3.0 20 20
r 1.09543 2 3 cbr 210 ------- 0 0.0 3.0 21 21
r 1.09918 2 3 cbr 210 ------- 0 0.0 3.0 22 22
r 1.10293 2 3 cbr 210 ------- 0 0.0 3.0 23 23
r 1.10668 2 3 cbr 210 ------- 0 0.0 3.0 24 24
r 1.11043 2 3 cbr 210 ------- 0 0.0 3.0 25 25
r 1.11418 2 3 cbr 210 ------- 0 0.0 3.0 26 26
r 1.11793 2 3 cbr 210 ------- 0 0.0 3.0 27 27
r 1.12168 2 3 cbr 210 ------- 0 0.0 3.0 28 28
r 1.12543 2 3 cbr 210 ------- 0 0.0 3.0 29 29
r 1.12918 2 3 cbr 210 ------- 0 0.0 3.0 30 30
r 1.13293 2 3 cbr 210 ------- 0 0.0 3.0 31 31
r 1.13668 2 3 cbr 210 ------- 0 0.0 3.0 32 32
r 1.14043 2 3 cbr 210 ------- 0 0.0 3.0 33 33
r 1.14418 2 3 cbr 210 ------- 0 0.0 3.0 34 34
r 1.14793 2 3 cbr 210 ------- 0 0.0 3.0 35 35
r 1.15168 2 3 cbr 210 ------- 0 0.0 3.0 36 36
r 1.15543 2 3 cbr 210 ------- 0 0.0 3.0 37 37
r 1.15918 2 3 cbr 210 ------- 0 0.0 3.0 38 38
r 1.16293 2 3 cbr 210 ------- 0 0.0 3.0 39 39
r 1.16668 2 3 cbr 210 ------- 0 0.0 3.0 40 40
r 1.17043 2 3 cbr 210 ------- 0 0.0 3.0 41 41
r 1.17418 2 3 cbr 210 ------- 0 0.0 3.0 42 42
r 1.17793 2 3 cbr 210 ------- 0 0.0 3.0 43 43
r 1.18168 2 3 cbr 210 ------- 0 0.0 3.0 44 44
r 1.18543 2 3 cbr 210 ------- 0 0.0 3.0 45 45
r 1.18918 2 3 cbr 210 ------- 0 0.0 3.0 46 46
r 1.19293 2 3 cbr 210 ------- 0 0.0 3.0 47 47
r 1.19668 2 3 cbr 210 ------- 0 0.0 3.0 48 48
r 1.20043 2 3 cbr 210 ------- 0 0.0 3.0 49 49
r 1.20418 2 3 cbr 210 ------- 0 0.0 3.0 50 50
r 1.20793 2 3 cbr 210 ------- 0 0.0 3.0 51 51
r 1.21168 2 3 cbr 210 ------- 0 0.0 3.0 52 52
r 1.21543 2 3 cbr 210 ------- 0 0.0 3.0 53 53
r 1.21918 2 3 cbr 210 ------- 0 0.0 3.0 54 54
r 1.22293 2 3 cbr 210 ------- 0 0.0 3.0 55 55
r 1.22668 2 3 cbr 210 ------- 0 0.0 3.0 56 56
r 1.23043 2 3 cbr 210 ------- 0 0.0 3.0 57 57
r 1.23418 2 3 cbr 210 ------- 0 0.0 3.0 58 58
r 1.23793 2 3 cbr 210 ------- 0 0.0 3.0 59 59
r 1.24168 2 3 cbr 210 ------- 0 0.0 3.0 60 60
r 1.24543 2 3 cbr 210 ------- 0 0.0 3.0 61 61
r 1.24918 2 3 cbr 210 ------- 0 0.0 3.0 62 62
r 1.25293 2 3 cbr 210 ------- 0 0.0 3.0 63 63
r 1.25668 2 3 cbr 210 ------- 0 0.0 3.0 64 64
r 1.26043 2 3 cbr 210 ------- 0 0.0 3.0 65 65
r 1.26418 2 3 cbr 210 ------- 0 0.0 3.0 66 66
r 1.26793 2 3 cbr 210 ------- 0 0.0 3.0 67 67
r 1.27168 2 3 cbr 210 ------- 0 0.0 3.0 68 68
r 1.27543 2 3 cbr 210 ------- 0 0.0 3.0 69 69
r 1.27918 2 3 cbr 210 ------- 0 0.0 3.0 70 70
r 1.28293 2 3 cbr 210 ------- 0 0.0 3.0 71 71
r 1.28668 2 3 cbr 210 ------- 0 0.0 3.0 72 72
r 1.29043 2 3 cbr 210 ------- 0 0.0 3.0 73 73
r 1.29418 2 3 cbr 210 ------- 0 0.0 3.0 74 74
r 1.29793 2 3 cbr 210 ------- 0 0.0 3.0 75 75
r 1.30168 2 3 cbr 210 ------- 0 0.0 3.0 76 76
r 1.30543 2 3 cbr 210 ------- 0 0.0 3.0 77 77
r 1.30918 2 3 cbr 210 ------- 0 0.0 3.0 78 78
r 1.31293 2 3 cbr 210 ------- 0 0.0 3.0 79 79
r 1.31668 2 3 cbr 210 ------- 0 0.0 3.0 80 80
r 1.32043 2 3 cbr 210 ------- 0 0.0 3.0 81 81
r 1.32418 2 3 cbr 210 ------- 0 0.0 3.0 82 82
r 1.32793 2 3 cbr 210 ------- 0 0.0 3.0 83 83
r 1.33168 2 3 cbr 210 ------- 0 0.0 3.0 84 84
r 1.33543 2 3 cbr 210 ------- 0 0.0 3.0 85 85
r 1.33918 2 3 cbr 210 ------- 0 0.0 3.0 86 86
r 1.34293 2 3 cbr 210 ------- 0 0.0 3.0 87 87
r 1.34668 2 3 cbr 210 ------- 0 0.0 3.0 88 88
r 1.35043 2 3 cbr 210 ------- 0 0.0 3.0 89 89
r 1.35418 2 3 cbr 210 ------- 0 0.0 3.0 90 90
r 1.35793 2 3 cbr 210 ------- 0 0.0 3.0 91 91
r 1.36168 2 3 cbr 210 ------- 0 0.0 3.0 92 92
r 1.36543 2 3 cbr 210 ------- 0 0.0 3.0 93 93
r 1.36918 2 3 cbr 210 ------- 0 0.0 3.0 94 94
r 1.37293 2 3 cbr 210 ------- 0 0.0 3.0 95 95
r 1.37668 2 3 cbr 210 ------- 0 0.0 3.0 96 96
r 1.38043 2 3 cbr 210 ------- 0 0.0 3.0 97 97
r 1.38418 2 3 cbr 210 ------- 0 0.0 3.0 98 98
r 1.38793 2 3 cbr 210 ------- 0 0.0 3.0 99 99
r 1.39168 2 3 cbr 210 ------- 0 0.0 3.0 100 100
r 1.39543 2 3 cbr 210 ------- 0 0.0 3.0 101 101
r 1.39918 2 3 cbr 210 ------- 0 0.0 3.0 102 102
r 1.40293 2 3 cbr 210 ------- 0 0.0 3.0 103 103
r 1.40668 2 3 cbr 210 ------- 0 0.0 3.0 104 104
r 1.41043 2 3 cbr 210 ------- 0 0.0 3.0 105 105
r 1.41418 2 3 cbr 210 ------- 0 0.0 3.0 106 106
r 1.41793 2 3 cbr 210 ------- 0 0.0 3.0 107 107
r 1.42168 2 3 cbr 210 ------- 0 0.0 3.0 108 108
r 1.42543 2 3 cbr 210 ------- 0 0.0 3.0 109 109
r 1.42918 2 3 cbr 210 ------- 0 0.0 3.0 110 110
r 1.43293 2 3 cbr 210 ------- 0 0.0 3.0 111 111
r 1.43668 2 3 cbr 210 ------- 0 0.0 3.0 112 112
r 1.44043 2 3 cbr 210 ------- 0 0.0 3.0 113 113
r 1.44418 2 3 cbr 210 ------- 0 0.0 3.0 114 114
r 1.44793 2 3 cbr 210 ------- 0 0.0 3.0 115 115
r 1.45168 2 3 cbr 210 ------- 0 0.0 3.0 116 116
r 1.45543 2 3 cbr 210 ------- 0 0.0 3.0 117 117
r 1.45918 2 3 cbr 210 ------- 0 0.0 3.0 118 118
r 1.46293 2 3 cbr 210 ------- 0 0.0 3.0 119 119
r 1.46668 2 3 cbr 210 ------- 0 0.0 3.0 120 120
r 1.47043 2 3 cbr 210 ------- 0 0.0 3.0 121 121
r 1.47418 2 3 cbr 210 ------- 0 0.0 3.0 122 122
r 1.47793 2 3 cbr 210 ------- 0 0.0 3.0 123 123
r 1.48168 2 3 cbr 210 ------- 0 0.0 3.0 124 124
r 1.48543 2 3 cbr 210 ------- 0 0.0 3.0 125 125
r 1.48918 2 3 cbr 210 ------- 0 0.0 3.0 126 126
r 1.49293 2 3 cbr 210 ------- 0 0.0 3.0 127 127
r 1.49668 2 3 cbr 210 ------- 0 0.0 3.0 128 128
r 1.50043 2 3 cbr 210 ------- 0 0.0 3.0 129 129
r 1.50418 2 3 cbr 210 ------- 0 0.0 3.0 130 130
r 1.50793 2 3 cbr 210 ------- 0 0.0 3.0 131 131
r 1.51168 2 3 cbr 210 ------- 0 0.0 3.0 132 132
r 1.51543 2 3 cbr 210 ------- 0 0.0 3.0 133 133
r 1.51918 2 3 cbr 210 ------- 0 0.0 3.0 134 135
r 1.52293 2 3 cbr 210 ------- 0 0.0 3.0 135 136
r 1.52668 2 3 cbr 210 ------- 0 0.0 3.0 136 137
r 1.53043 2 3 cbr 210 ------- 0 0.0 3.0 137 138
r 1.53418 2 3 cbr 210 ------- 0 0.0 3.0 138 140
r 1.53793 2 3 cbr 210 ------- 0 0.0 3.0 139 141
r 1.54168 2 3 cbr 210 ------- 0 0.0 3.0 140 142
r 1.54543 2 3 cbr 210 ------- 0 0.0 3.0 141 143
r 1.54918 2 3 cbr 210 ------- 0 0.0 3.0 142 146
r 1.561393 2 3 cbr 210 ------- 0 0.0 3.0 143 147
r 1.562513 2 3 cbr 210 ------- 0 0.0 3.0 144 148
r 1.563633 2 3 cbr 210 ------- 0 0.0 3.0 145 149
r 1.564753 2 3 cbr 210 ------- 0 0.0 3.0 146 150
r 1.56793 2 3 cbr 210 ------- 0 0.0 3.0 147 151
r 1.57168 2 3 cbr 210 ------- 0 0.0 3.0 148 153
r 1.57543 2 3 cbr 210 ------- 0 0.0 3.0 149 154
r 1.57918 2 3 cbr 210 ------- 0 0.0 3.0 150 156
r 1.58293 2 3 cbr 210 ------- 0 0.0 3.0 151 157
r 1.58668 2 3 cbr 210 ------- 0 0.0 3.0 152 158
r 1.594487 2 3 cbr 210 ------- 0 0.0 3.0 153 161
r 1.601153 2 3 cbr 210 ------- 0 0.0 3.0 154 164
r 1.613367 2 3 cbr 210 ------- 0 0.0 3.0 155 165
r 1.614487 2 3 cbr 210 ------- 0 0.0 3.0 156 166
r 1.615607 2 3 cbr 210 ------- 0 0.0 3.0 157 167
r 1.616727 2 3 cbr 210 ------- 0 0.0 3.0 158 168
r 1.617847 2 3 cbr 210 ------- 0 0.0 3.0 159 170
r 1.618967 2 3 cbr 210 ------- 0 0.0 3.0 160 171
r 1.62043 2 3 cbr 210 ------- 0 0.0 3.0 161 173
r 1.62418 2 3 cbr 210 ------- 0 0.0 3.0 162 175
r 1.633127 2 3 cbr 210 ------- 0 0.0 3.0 163 178
r 1.639793 2 3 cbr 210 ------- 0 0.0 3.0 164 180
r 1.64646 2 3 cbr 210 ------- 0 0.0 3.0 165 183
r 1.653127 2 3 cbr 210 ------- 0 0.0 3.0 166 186
r 1.659793 2 3 cbr 210 ------- 0 0.0 3.0 167 187
r 1.672007 2 3 cbr 210 ------- 0 0.0 3.0 168 190
r 1.678673 2 3 cbr 210 ------- 0 0.0 3.0 169 192
r 1.679793 2 3 cbr 210 ------- 0 0.0 3.0 170 193
r 1.680913 2 3 cbr 210 ------- 0 0.0 3.0 171 195
r 1.682033 2 3 cbr 210 ------- 0 0.0 3.0 172 196
r 1.683153 2 3 cbr 210 ------- 0 0.0 3.0 173 200
r 1.695367 2 3 cbr 210 ------- 0 0.0 3.0 174 202
r 1.702033 2 3 cbr 210 ------- 0 0.0 3.0 175 205
r 1.7087 2 3 cbr 210 ------- 0 0.0 3.0 176 207
r 1.715367 2 3 cbr 210 ------- 0 0.0 3.0 177 210
r 1.722033 2 3 cbr 210 ------- 0 0.0 3.0 178 214
r 1.7287 2 3 cbr 210 ------- 0 0.0 3.0 179 216
r 1.735367 2 3 cbr 210 ------- 0 0.0 3.0 180 219
r 1.742033 2 3 cbr 210 ------- 0 0.0 3.0 181 221
r 1.7487 2 3 cbr 210 ------- 0 0.0 3.0 182 224
r 1.760913 2 3 cbr 210 ------- 0 0.0 3.0 183 227
r 1.76758 2 3 cbr 210 ------- 0 0.0 3.0 184 229
r 1.774247 2 3 cbr 210 ------- 0 0.0 3.0 185 232
r 1.780913 2 3 cbr 210 ------- 0 0.0 3.0 187 236
r 1.782033 2 3 cbr 210 ------- 0 0.0 3.0 188 239
r 1.7887 2 3 cbr 210 ------- 0 0.0 3.0 189 241
r 1.78982 2 3 cbr 210 ------- 0 0.0 3.0 190 244
r 1.796487 2 3 cbr 210 ------- 0 0.0 3.0 192 249
r 1.803153 2 3 cbr 210 ------- 0 0.0 3.0 194 254
r 1.80982 2 3 cbr 210 ------- 0 0.0 3.0 196 259
r 1.816487 2 3 cbr 210 ------- 0 0.0 3.0 197 261
r 1.823153 2 3 cbr 210 ------- 0 0.0 3.0 199 265
r 1.82982 2 3 cbr 210 ------- 0 0.0 3.0 201 269
r 1.836487 2 3 cbr 210 ------- 0 0.0 3.0 203 274
r 1.837607 2 3 cbr 210 ------- 0 0.0 3.0 204 276
r 1.838727 2 3 cbr 210 ------- 0 0.0 3.0 205 278
r 1.845393 2 3 cbr 210 ------- 0 0.0 3.0 206 280
r 1.846513 2 3 cbr 210 ------- 0 0.0 3.0 207 283
r 1.85318 2 3 cbr 210 ------- 0 0.0 3.0 208 285
r 1.8543 2 3 cbr 210 ------- 0 0.0 3.0 209 287
r 1.85542 2 3 cbr 210 ------- 0 0.0 3.0 210 288
r 1.862087 2 3 cbr 210 ------- 0 0.0 3.0 212 292
r 1.868753 2 3 cbr 210 ------- 0 0.0 3.0 214 297
r 1.869873 2 3 cbr 210 ------- 0 0.0 3.0 215 298
r 1.870993 2 3 cbr 210 ------- 0 0.0 3.0 216 300
r 1.872113 2 3 cbr 210 ------- 0 0.0 3.0 217 301
r 1.873233 2 3 cbr 210 ------- 0 0.0 3.0 218 304
r 1.8799 2 3 cbr 210 ------- 0 0.0 3.0 219 305
r 1.88102 2 3 cbr 210 ------- 0 0.0 3.0 220 307
r 1.88214 2 3 cbr 210 ------- 0 0.0 3.0 221 309
r 1.88326 2 3 cbr 210 ------- 0 0.0 3.0 222 310
r 1.88438 2 3 cbr 210 ------- 0 0.0 3.0 223 312
r 1.8855 2 3 cbr 210 ------- 0 0.0 3.0 224 313
r 1.88662 2 3 cbr 210 ------- 0 0.0 3.0 225 314
r 1.88774 2 3 cbr 210 ------- 0 0.0 3.0 226 316
r 1.88886 2 3 cbr 210 ------- 0 0.0 3.0 227 317
r 1.88998 2 3 cbr 210 ------- 0 0.0 3.0 228 319
r 1.8911 2 3 cbr 210 ------- 0 0.0 3.0 229 320
r 1.89222 2 3 cbr 210 ------- 0 0.0 3.0 230 322
r 1.89334 2 3 cbr 210 ------- 0 0.0 3.0 231 323
r 1.89446 2 3 cbr 210 ------- 0 0.0 3.0 232 325
r 1.89558 2 3 cbr 210 ------- 0 0.0 3.0 233 326
r 1.8967 2 3 cbr 210 ------- 0 0.0 3.0 234 327
r 1.89793 2 3 cbr 210 ------- 0 0.0 3.0 235 329
r 1.90168 2 3 cbr 210 ------- 0 0.0 3.0 236 330
r 1.90543 2 3 cbr 210 ------- 0 0.0 3.0 237 331
r 1.90918 2 3 cbr 210 ------- 0 0.0 3.0 238 332
r 1.91293 2 3 cbr 210 ------- 0 0.0 3.0 239 335
r 1.925143 2 3 cbr 210 ------- 0 0.0 3.0 240 336
r 1.926263 2 3 cbr 210 ------- 0 0.0 3.0 241 337
r 1.927383 2 3 cbr 210 ------- 0 0.0 3.0 242 338
r 1.928503 2 3 cbr 210 ------- 0 0.0 3.0 243 339
r 1.93168 2 3 cbr 210 ------- 0 0.0 3.0 244 340
r 1.93543 2 3 cbr 210 ------- 0 0.0 3.0 245 342
r 1.93918 2 3 cbr 210 ------- 0 0.0 3.0 246 343
r 1.94293 2 3 cbr 210 ------- 0 0.0 3.0 247 345
r 1.94668 2 3 cbr 210 ------- 0 0.0 3.0 248 346
r 1.95043 2 3 cbr 210 ------- 0 0.0 3.0 249 347
r 1.958237 2 3 cbr 210 ------- 0 0.0 3.0 250 350
r 1.964903 2 3 cbr 210 ------- 0 0.0 3.0 251 354
r 1.977117 2 3 cbr 210 ------- 0 0.0 3.0 252 355
r 1.983783 2 3 cbr 210 ------- 0 0.0 3.0 253 356
r 1.984903 2 3 cbr 210 ------- 0 0.0 3.0 254 357
r 1.986023 2 3 cbr 210 ------- 0 0.0 3.0 255 358
r 1.987143 2 3 cbr 210 ------- 0 0.0 3.0 256 360
r 1.988263 2 3 cbr 210 ------- 0 0.0 3.0 257 361
r 1.989383 2 3 cbr 210 ------- 0 0.0 3.0 258 363
r 1.990503 2 3 cbr 210 ------- 0 0.0 3.0 259 365
r 1.99717 2 3 cbr 210 ------- 0 0.0 3.0 260 367
r 1.99829 2 3 cbr 210 ------- 0 0.0 3.0 261 369
r 2.004957 2 3 cbr 210 ------- 0 0.0 3.0 262 372
r 2.011623 2 3 cbr 210 ------- 0 0.0 3.0 263 375
r 2.01829 2 3 cbr 210 ------- 0 0.0 3.0 264 376
r 2.024957 2 3 cbr 210 ------- 0 0.0 3.0 265 379
r 2.031623 2 3 cbr 210 ------- 0 0.0 3.0 266 381
r 2.03829 2 3 cbr 210 ------- 0 0.0 3.0 267 383
r 2.03941 2 3 cbr 210 ------- 0 0.0 3.0 268 385
r 2.04053 2 3 cbr 210 ------- 0 0.0 3.0 269 386
r 2.04165 2 3 cbr 210 ------- 0 0.0 3.0 270 393
r 2.048317 2 3 cbr 210 ------- 0 0.0 3.0 271 394
r 2.06053 2 3 cbr 210 ------- 0 0.0 3.0 272 397
r 2.067197 2 3 cbr 210 ------- 0 0.0 3.0 273 398
r 2.07941 2 3 cbr 210 ------- 0 0.0 3.0 274 401
r 2.086077 2 3 cbr 210 ------- 0 0.0 3.0 275 403
r 2.087197 2 3 cbr 210 ------- 0 0.0 3.0 276 404
r 2.088317 2 3 cbr 210 ------- 0 0.0 3.0 277 406
r 2.089437 2 3 cbr 210 ------- 0 0.0 3.0 278 407
r 2.090557 2 3 cbr 210 ------- 0 0.0 3.0 279 410
r 2.097223 2 3 cbr 210 ------- 0 0.0 3.0 280 412
r 2.10389 2 3 cbr 210 ------- 0 0.0 3.0 281 414
r 2.110557 2 3 cbr 210 ------- 0 0.0 3.0 282 416
r 2.111677 2 3 cbr 210 ------- 0 0.0 3.0 283 418
r 2.118343 2 3 cbr 210 ------- 0 0.0 3.0 284 420
r 2.119463 2 3 cbr 210 ------- 0 0.0 3.0 285 422
r 2.12613 2 3 cbr 210 ------- 0 0.0 3.0 286 425
r 2.132797 2 3 cbr 210 ------- 0 0.0 3.0 287 428
r 2.139463 2 3 cbr 210 ------- 0 0.0 3.0 288 430
r 2.14613 2 3 cbr 210 ------- 0 0.0 3.0 289 432
r 2.14725 2 3 cbr 210 ------- 0 0.0 3.0 290 434
r 2.14837 2 3 cbr 210 ------- 0 0.0 3.0 291 435
r 2.14949 2 3 cbr 210 ------- 0 0.0 3.0 292 437
r 2.156157 2 3 cbr 210 ------- 0 0.0 3.0 293 439
r 2.162823 2 3 cbr 210 ------- 0 0.0 3.0 294 441
r 2.163943 2 3 cbr 210 ------- 0 0.0 3.0 295 443
r 2.165063 2 3 cbr 210 ------- 0 0.0 3.0 296 445
r 2.17173 2 3 cbr 210 ------- 0 0.0 3.0 297 447
r 2.17285 2 3 cbr 210 ------- 0 0.0 3.0 298 449
r 2.179517 2 3 cbr 210 ------- 0 0.0 3.0 299 451
r 2.180637 2 3 cbr 210 ------- 0 0.0 3.0 300 453
r 2.187303 2 3 cbr 210 ------- 0 0.0 3.0 301 455
r 2.188423 2 3 cbr 210 ------- 0 0.0 3.0 302 457
r 2.19509 2 3 cbr 210 ------- 0 0.0 3.0 303 459
r 2.19621 2 3 cbr 210 ------- 0 0.0 3.0 304 461
r 2.202877 2 3 cbr 210 ------- 0 0.0 3.0 305 463
r 2.203997 2 3 cbr 210 ------- 0 0.0 3.0 306 466
r 2.210663 2 3 cbr 210 ------- 0 0.0 3.0 307 467
r 2.211783 2 3 cbr 210 ------- 0 0.0 3.0 308 469
r 2.21845 2 3 cbr 210 ------- 0 0.0 3.0 309 471
r 2.21957 2 3 cbr 210 ------- 0 0.0 3.0 310 474
r 2.226237 2 3 cbr 210 ------- 0 0.0 3.0 311 475
r 2.227357 2 3 cbr 210 ------- 0 0.0 3.0 312 476
r 2.234023 2 3 cbr 210 ------- 0 0.0 3.0 313 480
r 2.24069 2 3 cbr 210 ------- 0 0.0 3.0 314 482
r 2.247357 2 3 cbr 210 ------- 0 0.0 3.0 315 484
r 2.248477 2 3 cbr 210 ------- 0 0.0 3.0 316 485
r 2.255143 2 3 cbr 210 ------- 0 0.0 3.0 317 488
r 2.256263 2 3 cbr 210 ------- 0 0.0 3.0 318 489
r 2.26293 2 3 cbr 210 ------- 0 0.0 3.0 319 492
r 2.26405 2 3 cbr 210 ------- 0 0.0 3.0 320 493
r 2.270717 2 3 cbr 210 ------- 0 0.0 3.0 321 496
r 2.271837 2 3 cbr 210 ------- 0 0.0 3.0 322 497
r 2.272957 2 3 cbr 210 ------- 0 0.0 3.0 323 500
r 2.279623 2 3 cbr 210 ------- 0 0.0 3.0 324 501
r 2.280743 2 3 cbr 210 ------- 0 0.0 3.0 325 504
r 2.28741 2 3 cbr 210 ------- 0 0.0 3.0 326 505
r 2.28853 2 3 cbr 210 ------- 0 0.0 3.0 327 508
r 2.295197 2 3 cbr 210 ------- 0 0.0 3.0 329 512
r 2.301863 2 3 cbr 210 ------- 0 0.0 3.0 330 513
r 2.302983 2 3 cbr 210 ------- 0 0.0 3.0 331 516
r 2.30965 2 3 cbr 210 ------- 0 0.0 3.0 332 517
r 2.31077 2 3 cbr 210 ------- 0 0.0 3.0 333 520
r 2.317437 2 3 cbr 210 ------- 0 0.0 3.0 334 521
r 2.318557 2 3 cbr 210 ------- 0 0.0 3.0 335 525
r 2.33077 2 3 cbr 210 ------- 0 0.0 3.0 336 526
r 2.33189 2 3 cbr 210 ------- 0 0.0 3.0 337 529
r 2.33301 2 3 cbr 210 ------- 0 0.0 3.0 338 530
r 2.33413 2 3 cbr 210 ------- 0 0.0 3.0 339 533
r 2.340797 2 3 cbr 210 ------- 0 0.0 3.0 340 534
r 2.341917 2 3 cbr 210 ------- 0 0.0 3.0 341 537
r 2.348583 2 3 cbr 210 ------- 0 0.0 3.0 342 538
r 2.349703 2 3 cbr 210 ------- 0 0.0 3.0 343 540
r 2.35637 2 3 cbr 210 ------- 0 0.0 3.0 344 542
r 2.35749 2 3 cbr 210 ------- 0 0.0 3.0 345 543
r 2.364157 2 3 cbr 210 ------- 0 0.0 3.0 346 546
r 2.365277 2 3 cbr 210 ------- 0 0.0 3.0 347 548
r 2.371943 2 3 cbr 210 ------- 0 0.0 3.0 348 550
r 2.373063 2 3 cbr 210 ------- 0 0.0 3.0 349 552
r 2.374183 2 3 cbr 210 ------- 0 0.0 3.0 351 556
r 2.38085 2 3 cbr 210 ------- 0 0.0 3.0 352 558
r 2.38197 2 3 cbr 210 ------- 0 0.0 3.0 353 559
r 2.388637 2 3 cbr 210 ------- 0 0.0 3.0 354 562
r 2.389757 2 3 cbr 210 ------- 0 0.0 3.0 355 564
r 2.396423 2 3 cbr 210 ------- 0 0.0 3.0 356 566
r 2.397543 2 3 cbr 210 ------- 0 0.0 3.0 357 567
r 2.40421 2 3 cbr 210 ------- 0 0.0 3.0 358 570
r 2.40533 2 3 cbr 210 ------- 0 0.0 3.0 359 572
r 2.411997 2 3 cbr 210 ------- 0 0.0 3.0 360 574
r 2.413117 2 3 cbr 210 ------- 0 0.0 3.0 361 575
r 2.419783 2 3 cbr 210 ------- 0 0.0 3.0 362 578
r 2.420903 2 3 cbr 210 ------- 0 0.0 3.0 363 579
r 2.42757 2 3 cbr 210 ------- 0 0.0 3.0 364 582
r 2.42869 2 3 cbr 210 ------- 0 0.0 3.0 365 583
r 2.42981 2 3 cbr 210 ------- 0 0.0 3.0 366 586
r 2.436477 2 3 cbr 210 ------- 0 0.0 3.0 367 587
r 2.437597 2 3 cbr 210 ------- 0 0.0 3.0 368 589
r 2.438717 2 3 cbr 210 ------- 0 0.0 3.0 369 590
r 2.439837 2 3 cbr 210 ------- 0 0.0 3.0 370 591
r 2.440957 2 3 cbr 210 ------- 0 0.0 3.0 371 593
r 2.442077 2 3 cbr 210 ------- 0 0.0 3.0 372 594
r 2.443197 2 3 cbr 210 ------- 0 0.0 3.0 373 596
r 2.444317 2 3 cbr 210 ------- 0 0.0 3.0 374 597
r 2.445437 2 3 cbr 210 ------- 0 0.0 3.0 375 599
r 2.446557 2 3 cbr 210 ------- 0 0.0 3.0 376 600
r 2.447677 2 3 cbr 210 ------- 0 0.0 3.0 377 602
r 2.448797 2 3 cbr 210 ------- 0 0.0 3.0 378 603
r 2.449917 2 3 cbr 210 ------- 0 0.0 3.0 379 605
r 2.451037 2 3 cbr 210 ------- 0 0.0 3.0 380 606
r 2.452157 2 3 cbr 210 ------- 0 0.0 3.0 381 608
r 2.453277 2 3 cbr 210 ------- 0 0.0 3.0 382 609
r 2.454397 2 3 cbr 210 ------- 0 0.0 3.0 383 611
r 2.45668 2 3 cbr 210 ------- 0 0.0 3.0 384 612
r 2.46043 2 3 cbr 210 ------- 0 0.0 3.0 385 613
r 2.46418 2 3 cbr 210 ------- 0 0.0 3.0 386 614
r 2.46793 2 3 cbr 210 ------- 0 0.0 3.0 387 617
r 2.475117 2 3 cbr 210 ------- 0 0.0 3.0 388 618
r 2.481783 2 3 cbr 210 ------- 0 0.0 3.0 389 619
r 2.482903 2 3 cbr 210 ------- 0 0.0 3.0 390 620
r 2.484023 2 3 cbr 210 ------- 0 0.0 3.0 391 621
r 2.48668 2 3 cbr 210 ------- 0 0.0 3.0 392 622
r 2.49043 2 3 cbr 210 ------- 0 0.0 3.0 393 623
r 2.49418 2 3 cbr 210 ------- 0 0.0 3.0 394 625
r 2.49793 2 3 cbr 210 ------- 0 0.0 3.0 395 627
r 2.50168 2 3 cbr 210 ------- 0 0.0 3.0 396 628
r 2.50543 2 3 cbr 210 ------- 0 0.0 3.0 397 629
r 2.513757 2 3 cbr 210 ------- 0 0.0 3.0 398 633
r 2.520423 2 3 cbr 210 ------- 0 0.0 3.0 399 635
r 2.532637 2 3 cbr 210 ------- 0 0.0 3.0 400 636
r 2.533757 2 3 cbr 210 ------- 0 0.0 3.0 401 637
r 2.534877 2 3 cbr 210 ------- 0 0.0 3.0 402 638
r 2.535997 2 3 cbr 210 ------- 0 0.0 3.0 403 639
r 2.537117 2 3 cbr 210 ------- 0 0.0 3.0 404 641
r 2.538237 2 3 cbr 210 ------- 0 0.0 3.0 405 642
r 2.539357 2 3 cbr 210 ------- 0 0.0 3.0 406 644
r 2.54293 2 3 cbr 210 ------- 0 0.0 3.0 407 646
r 2.54668 2 3 cbr 210 ------- 0 0.0 3.0 408 648
r 2.553347 2 3 cbr 210 ------- 0 0.0 3.0 409 650
r 2.560013 2 3 cbr 210 ------- 0 0.0 3.0 410 653
r 2.56668 2 3 cbr 210 ------- 0 0.0 3.0 411 654
r 2.573347 2 3 cbr 210 ------- 0 0.0 3.0 412 657
r 2.580013 2 3 cbr 210 ------- 0 0.0 3.0 413 659
r 2.58668 2 3 cbr 210 ------- 0 0.0 3.0 414 661
r 2.5878 2 3 cbr 210 ------- 0 0.0 3.0 415 662
r 2.58892 2 3 cbr 210 ------- 0 0.0 3.0 416 664
r 2.59004 2 3 cbr 210 ------- 0 0.0 3.0 417 665
r 2.59116 2 3 cbr 210 ------- 0 0.0 3.0 418 667
r 2.597827 2 3 cbr 210 ------- 0 0.0 3.0 419 669
r 2.598947 2 3 cbr 210 ------- 0 0.0 3.0 420 672
r 2.605613 2 3 cbr 210 ------- 0 0.0 3.0 421 673
r 2.606733 2 3 cbr 210 ------- 0 0.0 3.0 422 676
r 2.6134 2 3 cbr 210 ------- 0 0.0 3.0 423 678
r 2.620067 2 3 cbr 210 ------- 0 0.0 3.0 424 680
r 2.621187 2 3 cbr 210 ------- 0 0.0 3.0 425 681
r 2.627853 2 3 cbr 210 ------- 0 0.0 3.0 426 684
r 2.628973 2 3 cbr 210 ------- 0 0.0 3.0 427 687
r 2.63564 2 3 cbr 210 ------- 0 0.0 3.0 428 689
r 2.642307 2 3 cbr 210 ------- 0 0.0 3.0 429 690
r 2.643427 2 3 cbr 210 ------- 0 0.0 3.0 430 693
r 2.650093 2 3 cbr 210 ------- 0 0.0 3.0 431 694
r 2.651213 2 3 cbr 210 ------- 0 0.0 3.0 432 697
r 2.65788 2 3 cbr 210 ------- 0 0.0 3.0 433 698
r 2.659 2 3 cbr 210 ------- 0 0.0 3.0 434 700
r 2.665667 2 3 cbr 210 ------- 0 0.0 3.0 435 702
r 2.666787 2 3 cbr 210 ------- 0 0.0 3.0 436 705
r 2.673453 2 3 cbr 210 ------- 0 0.0 3.0 437 706
r 2.674573 2 3 cbr 210 ------- 0 0.0 3.0 438 709
r 2.68124 2 3 cbr 210 ------- 0 0.0 3.0 439 710
r 2.68236 2 3 cbr 210 ------- 0 0.0 3.0 440 713
r 2.689027 2 3 cbr 210 ------- 0 0.0 3.0 441 714
r 2.690147 2 3 cbr 210 ------- 0 0.0 3.0 442 718
r 2.696813 2 3 cbr 210 ------- 0 0.0 3.0 443 719
r 2.70348 2 3 cbr 210 ------- 0 0.0 3.0 444 722
r 2.710147 2 3 cbr 210 ------- 0 0.0 3.0 445 723
r 2.711267 2 3 cbr 210 ------- 0 0.0 3.0 446 726
r 2.717933 2 3 cbr 210 ------- 0 0.0 3.0 447 727
r 2.719053 2 3 cbr 210 ------- 0 0.0 3.0 448 729
r 2.72572 2 3 cbr 210 ------- 0 0.0 3.0 449 731
r 2.72684 2 3 cbr 210 ------- 0 0.0 3.0 450 732
r 2.733507 2 3 cbr 210 ------- 0 0.0 3.0 451 735
r 2.734627 2 3 cbr 210 ------- 0 0.0 3.0 452 736
r 2.741293 2 3 cbr 210 ------- 0 0.0 3.0 453 739
r 2.742413 2 3 cbr 210 ------- 0 0.0 3.0 454 741
r 2.74908 2 3 cbr 210 ------- 0 0.0 3.0 455 743
r 2.7502 2 3 cbr 210 ------- 0 0.0 3.0 456 745
r 2.756867 2 3 cbr 210 ------- 0 0.0 3.0 457 747
r 2.757987 2 3 cbr 210 ------- 0 0.0 3.0 458 749
r 2.764653 2 3 cbr 210 ------- 0 0.0 3.0 459 751
r 2.765773 2 3 cbr 210 ------- 0 0.0 3.0 460 755
r 2.77244 2 3 cbr 210 ------- 0 0.0 3.0 461 756
r 2.779107 2 3 cbr 210 ------- 0 0.0 3.0 462 759
r 2.785773 2 3 cbr 210 ------- 0 0.0 3.0 463 760
r 2.786893 2 3 cbr 210 ------- 0 0.0 3.0 464 762
r 2.79356 2 3 cbr 210 ------- 0 0.0 3.0 465 764
r 2.79468 2 3 cbr 210 ------- 0 0.0 3.0 466 765
r 2.801347 2 3 cbr 210 ------- 0 0.0 3.0 467 768
r 2.802467 2 3 cbr 210 ------- 0 0.0 3.0 468 769
r 2.809133 2 3 cbr 210 ------- 0 0.0 3.0 469 772
r 2.810253 2 3 cbr 210 ------- 0 0.0 3.0 470 773
r 2.81692 2 3 cbr 210 ------- 0 0.0 3.0 471 776
r 2.81804 2 3 cbr 210 ------- 0 0.0 3.0 472 777
r 2.824707 2 3 cbr 210 ------- 0 0.0 3.0 473 780
r 2.825827 2 3 cbr 210 ------- 0 0.0 3.0 474 781
r 2.832493 2 3 cbr 210 ------- 0 0.0 3.0 475 784
r 2.833613 2 3 cbr 210 ------- 0 0.0 3.0 476 786
r 2.834733 2 3 cbr 210 ------- 0 0.0 3.0 477 788
r 2.8414 2 3 cbr 210 ------- 0 0.0 3.0 478 790
r 2.848067 2 3 cbr 210 ------- 0 0.0 3.0 479 793
r 2.854733 2 3 cbr 210 ------- 0 0.0 3.0 480 795
r 2.8614 2 3 cbr 210 ------- 0 0.0 3.0 481 797
r 2.86252 2 3 cbr 210 ------- 0 0.0 3.0 482 798
r 2.869187 2 3 cbr 210 ------- 0 0.0 3.0 483 801
r 2.870307 2 3 cbr 210 ------- 0 0.0 3.0 484 802
r 2.876973 2 3 cbr 210 ------- 0 0.0 3.0 485 805
r 2.878093 2 3 cbr 210 ------- 0 0.0 3.0 486 806
r 2.88476 2 3 cbr 210 ------- 0 0.0 3.0 487 809
r 2.88588 2 3 cbr 210 ------- 0 0.0 3.0 488 810
r 2.892547 2 3 cbr 210 ------- 0 0.0 3.0 489 813
r 2.893667 2 3 cbr 210 ------- 0 0.0 3.0 490 814
r 2.900333 2 3 cbr 210 ------- 0 0.0 3.0 491 817
r 2.901453 2 3 cbr 210 ------- 0 0.0 3.0 492 818
r 2.902573 2 3 cbr 210 ------- 0 0.0 3.0 493 821
r 2.90924 2 3 cbr 210 ------- 0 0.0 3.0 494 822
r 2.91036 2 3 cbr 210 ------- 0 0.0 3.0 495 825
r 2.917027 2 3 cbr 210 ------- 0 0.0 3.0 496 826
r 2.918147 2 3 cbr 210 ------- 0 0.0 3.0 497 829
r 2.924813 2 3 cbr 210 ------- 0 0.0 3.0 498 830
r 2.93148 2 3 cbr 210 ------- 0 0.0 3.0 499 833
r 2.9326 2 3 cbr 210 ------- 0 0.0 3.0 500 834
r 2.939267 2 3 cbr 210 ------- 0 0.0 3.0 501 838
r 2.945933 2 3 cbr 210 ------- 0 0.0 3.0 502 839
r 2.9526 2 3 cbr 210 ------- 0 0.0 3.0 503 842
r 2.95372 2 3 cbr 210 ------- 0 0.0 3.0 504 843
r 2.960387 2 3 cbr 210 ------- 0 0.0 3.0 505 846
r 2.961507 2 3 cbr 210 ------- 0 0.0 3.0 506 847
r 2.968173 2 3 cbr 210 ------- 0 0.0 3.0 507 850
r 2.969293 2 3 cbr 210 ------- 0 0.0 3.0 508 851
r 2.970413 2 3 cbr 210 ------- 0 0.0 3.0 509 854
r 2.97708 2 3 cbr 210 ------- 0 0.0 3.0 510 855
r 2.9782 2 3 cbr 210 ------- 0 0.0 3.0 511 858
r 2.984867 2 3 cbr 210 ------- 0 0.0 3.0 512 859
r 2.985987 2 3 cbr 210 ------- 0 0.0 3.0 513 862
r 2.992653 2 3 cbr 210 ------- 0 0.0 3.0 514 863
r 2.993773 2 3 cbr 210 ------- 0 0.0 3.0 515 866
r 3.00044 2 3 cbr 210 ------- 0 0.0 3.0 517 869
r 3.007107 2 3 cbr 210 ------- 0 0.0 3.0 518 871
r 3.008227 2 3 cbr 210 ------- 0 0.0 3.0 519 874
r 3.014893 2 3 cbr 210 ------- 0 0.0 3.0 520 875
r 3.016013 2 3 cbr 210 ------- 0 0.0 3.0 521 878
r 3.02268 2 3 cbr 210 ------- 0 0.0 3.0 522 879
r 3.0238 2 3 cbr 210 ------- 0 0.0 3.0 523 883
r 3.030467 2 3 cbr 210 ------- 0 0.0 3.0 524 884
r 3.037133 2 3 cbr 210 ------- 0 0.0 3.0 525 887
r 3.038253 2 3 cbr 210 ------- 0 0.0 3.0 526 888
r 3.039373 2 3 cbr 210 ------- 0 0.0 3.0 527 891
r 3.04604 2 3 cbr 210 ------- 0 0.0 3.0 528 892
r 3.04716 2 3 cbr 210 ------- 0 0.0 3.0 529 895
r 3.053827 2 3 cbr 210 ------- 0 0.0 3.0 530 896
r 3.054947 2 3 cbr 210 ------- 0 0.0 3.0 531 897
r 3.061613 2 3 cbr 210 ------- 0 0.0 3.0 532 900
r 3.062733 2 3 cbr 210 ------- 0 0.0 3.0 533 901
r 3.0694 2 3 cbr 210 ------- 0 0.0 3.0 534 904
r 3.07052 2 3 cbr 210 ------- 0 0.0 3.0 535 906
r 3.07164 2 3 cbr 210 ------- 0 0.0 3.0 536 907
r 3.07276 2 3 cbr 210 ------- 0 0.0 3.0 537 908
r 3.07388 2 3 cbr 210 ------- 0 0.0 3.0 538 910
r 3.075 2 3 cbr 210 ------- 0 0.0 3.0 539 911
r 3.07612 2 3 cbr 210 ------- 0 0.0 3.0 540 913
r 3.07724 2 3 cbr 210 ------- 0 0.0 3.0 541 914
r 3.07836 2 3 cbr 210 ------- 0 0.0 3.0 542 916
r 3.07948 2 3 cbr 210 ------- 0 0.0 3.0 543 918
r 3.0806 2 3 cbr 210 ------- 0 0.0 3.0 544 919
r 3.08172 2 3 cbr 210 ------- 0 0.0 3.0 545 920
r 3.08284 2 3 cbr 210 ------- 0 0.0 3.0 546 922
r 3.08396 2 3 cbr 210 ------- 0 0.0 3.0 547 923
r 3.08508 2 3 cbr 210 ------- 0 0.0 3.0 548 925
r 3.0862 2 3 cbr 210 ------- 0 0.0 3.0 549 926
r 3.08732 2 3 cbr 210 ------- 0 0.0 3.0 550 928
r 3.08844 2 3 cbr 210 ------- 0 0.0 3.0 551 929
r 3.08956 2 3 cbr 210 ------- 0 0.0 3.0 552 931
r 3.09068 2 3 cbr 210 ------- 0 0.0 3.0 553 932
r 3.09418 2 3 cbr 210 ------- 0 0.0 3.0 554 934
r 3.100847 2 3 cbr 210 ------- 0 0.0 3.0 555 935
r 3.101967 2 3 cbr 210 ------- 0 0.0 3.0 556 936
r 3.10543 2 3 cbr 210 ------- 0 0.0 3.0 557 937
r 3.10918 2 3 cbr 210 ------- 0 0.0 3.0 558 938
r 3.11293 2 3 cbr 210 ------- 0 0.0 3.0 559 939
r 3.11668 2 3 cbr 210 ------- 0 0.0 3.0 560 941
r 3.12043 2 3 cbr 210 ------- 0 0.0 3.0 561 942
r 3.12418 2 3 cbr 210 ------- 0 0.0 3.0 562 943
r 3.12793 2 3 cbr 210 ------- 0 0.0 3.0 563 944
r 3.13168 2 3 cbr 210 ------- 0 0.0 3.0 564 945
r 3.13543 2 3 cbr 210 ------- 0 0.0 3.0 565 946
r 3.13918 2 3 cbr 210 ------- 0 0.0 3.0 566 947
r 3.14293 2 3 cbr 210 ------- 0 0.0 3.0 567 948
r 3.14668 2 3 cbr 210 ------- 0 0.0 3.0 568 949
r 3.15043 2 3 cbr 210 ------- 0 0.0 3.0 569 950
r 3.15418 2 3 cbr 210 ------- 0 0.0 3.0 570 951
r 3.15793 2 3 cbr 210 ------- 0 0.0 3.0 571 952
r 3.16168 2 3 cbr 210 ------- 0 0.0 3.0 572 953
r 3.16543 2 3 cbr 210 ------- 0 0.0 3.0 573 954
r 3.16918 2 3 cbr 210 ------- 0 0.0 3.0 574 955
r 3.17293 2 3 cbr 210 ------- 0 0.0 3.0 575 956
r 3.17668 2 3 cbr 210 ------- 0 0.0 3.0 576 957
r 3.18043 2 3 cbr 210 ------- 0 0.0 3.0 577 958
r 3.18418 2 3 cbr 210 ------- 0 0.0 3.0 578 959
r 3.18793 2 3 cbr 210 ------- 0 0.0 3.0 579 960
r 3.19168 2 3 cbr 210 ------- 0 0.0 3.0 580 961
r 3.19543 2 3 cbr 210 ------- 0 0.0 3.0 581 962
r 3.19918 2 3 cbr 210 ------- 0 0.0 3.0 582 963
r 3.20293 2 3 cbr 210 ------- 0 0.0 3.0 583 964
r 3.20668 2 3 cbr 210 ------- 0 0.0 3.0 584 965
r 3.21043 2 3 cbr 210 ------- 0 0.0 3.0 585 966
r 3.21418 2 3 cbr 210 ------- 0 0.0 3.0 586 967
r 3.21793 2 3 cbr 210 ------- 0 0.0 3.0 587 968
r 3.22168 2 3 cbr 210 ------- 0 0.0 3.0 588 969
r 3.22543 2 3 cbr 210 ------- 0 0.0 3.0 589 970
r 3.22918 2 3 cbr 210 ------- 0 0.0 3.0 590 971
r 3.23293 2 3 cbr 210 ------- 0 0.0 3.0 591 972
r 3.23668 2 3 cbr 210 ------- 0 0.0 3.0 592 973
r 3.24043 2 3 cbr 210 ------- 0 0.0 3.0 593 974
r 3.24418 2 3 cbr 210 ------- 0 0.0 3.0 594 975
r 3.24793 2 3 cbr 210 ------- 0 0.0 3.0 595 976
r 3.25168 2 3 cbr 210 ------- 0 0.0 3.0 596 977
r 3.25543 2 3 cbr 210 ------- 0 0.0 3.0 597 978
r 3.25918 2 3 cbr 210 ------- 0 0.0 3.0 598 979
r 3.26293 2 3 cbr 210 ------- 0 0.0 3.0 599 980
r 3.26668 2 3 cbr 210 ------- 0 0.0 3.0 600 981
r 3.27043 2 3 cbr 210 ------- 0 0.0 3.0 601 982
r 3.27418 2 3 cbr 210 ------- 0 0.0 3.0 602 983
r 3.27793 2 3 cbr 210 ------- 0 0.0 3.0 603 984
r 3.28168 2 3 cbr 210 ------- 0 0.0 3.0 604 985
r 3.28543 2 3 cbr 210 ------- 0 0.0 3.0 605 986
r 3.28918 2 3 cbr 210 ------- 0 0.0 3.0 606 987
r 3.29293 2 3 cbr 210 ------- 0 0.0 3.0 607 988
r 3.29668 2 3 cbr 210 ------- 0 0.0 3.0 608 989
r 3.30043 2 3 cbr 210 ------- 0 0.0 3.0 609 990
r 3.30418 2 3 cbr 210 ------- 0 0.0 3.0 610 991
r 3.30793 2 3 cbr 210 ------- 0 0.0 3.0 611 992
r 3.31168 2 3 cbr 210 ------- 0 0.0 3.0 612 993
r 3.31543 2 3 cbr 210 ------- 0 0.0 3.0 613 994
r 3.31918 2 3 cbr 210 ------- 0 0.0 3.0 614 995
r 3.32293 2 3 cbr 210 ------- 0 0.0 3.0 615 996
r 3.32668 2 3 cbr 210 ------- 0 0.0 3.0 616 997
r 3.33043 2 3 cbr 210 ------- 0 0.0 3.0 617 998
r 3.33418 2 3 cbr 210 ------- 0 0.0 3.0 618 999
r 3.33793 2 3 cbr 210 ------- 0 0.0 3.0 619 1000
r 3.34168 2 3 cbr 210 ------- 0 0.0 3.0 620 1001
r 3.34543 2 3 cbr 210 ------- 0 0.0 3.0 621 1002
r 3.34918 2 3 cbr 210 ------- 0 0.0 3.0 622 1003
r 3.35293 2 3 cbr 210 ------- 0 0.0 3.0 623 1004
r 3.35668 2 3 cbr 210 ------- 0 0.0 3.0 624 1005
r 3.36043 2 3 cbr 210 ------- 0 0.0 3.0 625 1006
r 3.36418 2 3 cbr 210 ------- 0 0.0 3.0 626 1007
r 3.36793 2 3 cbr 210 ------- 0 0.0 3.0 627 1008
r 3.37168 2 3 cbr 210 ------- 0 0.0 3.0 628 1009
r 3.37543 2 3 cbr 210 ------- 0 0.0 3.0 629 1010
r 3.37918 2 3 cbr 210 ------- 0 0.0 3.0 630 1011
r 3.38293 2 3 cbr 210 ------- 0 0.0 3.0 631 1012
r 3.38668 2 3 cbr 210 ------- 0 0.0 3.0 632 1013
r 3.39043 2 3 cbr 210 ------- 0 0.0 3.0 633 1014
r 3.39418 2 3 cbr 210 ------- 0 0.0 3.0 634 1015
r 3.39793 2 3 cbr 210 ------- 0 0.0 3.0 635 1016