+ 1.5 1 2 tcp 40 ------- 1 1.0 3.1 0 134
- 1.5 1 2 tcp 40 ------- 1 1.0 3.1 0 134
r 1.505107 1 2 tcp 40 ------- 1 1.0 3.1 0 134
+ 1.530963 1 2 tcp 1040 ------- 1 1.0 3.1 1 144
- 1.530963 1 2 tcp 1040 ------- 1 1.0 3.1 1 144
+ 1.530963 1 2 tcp 1040 ------- 1 1.0 3.1 2 145
- 1.533737 1 2 tcp 1040 ------- 1 1.0 3.1 2 145
r 1.538737 1 2 tcp 1040 ------- 1 1.0 3.1 1 144
r 1.54151 1 2 tcp 1040 ------- 1 1.0 3.1 2 145
+ 1.570047 1 2 tcp 1040 ------- 1 1.0 3.1 3 159
- 1.570047 1 2 tcp 1040 ------- 1 1.0 3.1 3 159
+ 1.570047 1 2 tcp 1040 ------- 1 1.0 3.1 4 160
- 1.57282 1 2 tcp 1040 ------- 1 1.0 3.1 4 160
+ 1.575593 1 2 tcp 1040 ------- 1 1.0 3.1 5 162
+ 1.575593 1 2 tcp 1040 ------- 1 1.0 3.1 6 163
- 1.575593 1 2 tcp 1040 ------- 1 1.0 3.1 5 162
r 1.57782 1 2 tcp 1040 ------- 1 1.0 3.1 3 159
- 1.578367 1 2 tcp 1040 ------- 1 1.0 3.1 6 163
r 1.580593 1 2 tcp 1040 ------- 1 1.0 3.1 4 160
r 1.583367 1 2 tcp 1040 ------- 1 1.0 3.1 5 162
r 1.58614 1 2 tcp 1040 ------- 1 1.0 3.1 6 163
+ 1.608687 1 2 tcp 1040 ------- 1 1.0 3.1 7 176
- 1.608687 1 2 tcp 1040 ------- 1 1.0 3.1 7 176
+ 1.608687 1 2 tcp 1040 ------- 1 1.0 3.1 8 177
- 1.61146 1 2 tcp 1040 ------- 1 1.0 3.1 8 177
+ 1.615353 1 2 tcp 1040 ------- 1 1.0 3.1 9 181
- 1.615353 1 2 tcp 1040 ------- 1 1.0 3.1 9 181
+ 1.615353 1 2 tcp 1040 ------- 1 1.0 3.1 10 182
r 1.61646 1 2 tcp 1040 ------- 1 1.0 3.1 7 176
- 1.618127 1 2 tcp 1040 ------- 1 1.0 3.1 10 182
r 1.619233 1 2 tcp 1040 ------- 1 1.0 3.1 8 177
+ 1.62202 1 2 tcp 1040 ------- 1 1.0 3.1 11 184
- 1.62202 1 2 tcp 1040 ------- 1 1.0 3.1 11 184
+ 1.62202 1 2 tcp 1040 ------- 1 1.0 3.1 12 185
r 1.623127 1 2 tcp 1040 ------- 1 1.0 3.1 9 181
- 1.624793 1 2 tcp 1040 ------- 1 1.0 3.1 12 185
r 1.6259 1 2 tcp 1040 ------- 1 1.0 3.1 10 182
+ 1.627567 1 2 tcp 1040 ------- 1 1.0 3.1 13 188
+ 1.627567 1 2 tcp 1040 ------- 1 1.0 3.1 14 189
- 1.627567 1 2 tcp 1040 ------- 1 1.0 3.1 13 188
r 1.629793 1 2 tcp 1040 ------- 1 1.0 3.1 11 184
- 1.63034 1 2 tcp 1040 ------- 1 1.0 3.1 14 189
r 1.632567 1 2 tcp 1040 ------- 1 1.0 3.1 12 185
r 1.63534 1 2 tcp 1040 ------- 1 1.0 3.1 13 188
r 1.638113 1 2 tcp 1040 ------- 1 1.0 3.1 14 189
+ 1.647327 1 2 tcp 1040 ------- 1 1.0 3.1 15 198
- 1.647327 1 2 tcp 1040 ------- 1 1.0 3.1 15 198
+ 1.647327 1 2 tcp 1040 ------- 1 1.0 3.1 16 199
- 1.6501 1 2 tcp 1040 ------- 1 1.0 3.1 16 199
+ 1.653993 1 2 tcp 1040 ------- 1 1.0 3.1 17 203
- 1.653993 1 2 tcp 1040 ------- 1 1.0 3.1 17 203
+ 1.653993 1 2 tcp 1040 ------- 1 1.0 3.1 18 204
r 1.6551 1 2 tcp 1040 ------- 1 1.0 3.1 15 198
- 1.656767 1 2 tcp 1040 ------- 1 1.0 3.1 18 204
r 1.657873 1 2 tcp 1040 ------- 1 1.0 3.1 16 199
+ 1.66066 1 2 tcp 1040 ------- 1 1.0 3.1 19 208
- 1.66066 1 2 tcp 1040 ------- 1 1.0 3.1 19 208
+ 1.66066 1 2 tcp 1040 ------- 1 1.0 3.1 20 209
r 1.661767 1 2 tcp 1040 ------- 1 1.0 3.1 17 203
- 1.663433 1 2 tcp 1040 ------- 1 1.0 3.1 20 209
r 1.66454 1 2 tcp 1040 ------- 1 1.0 3.1 18 204
+ 1.667327 1 2 tcp 1040 ------- 1 1.0 3.1 21 212
- 1.667327 1 2 tcp 1040 ------- 1 1.0 3.1 21 212
+ 1.667327 1 2 tcp 1040 ------- 1 1.0 3.1 22 213
r 1.668433 1 2 tcp 1040 ------- 1 1.0 3.1 19 208
- 1.6701 1 2 tcp 1040 ------- 1 1.0 3.1 22 213
r 1.671207 1 2 tcp 1040 ------- 1 1.0 3.1 20 209
+ 1.673993 1 2 tcp 1040 ------- 1 1.0 3.1 23 217
- 1.673993 1 2 tcp 1040 ------- 1 1.0 3.1 23 217
+ 1.673993 1 2 tcp 1040 ------- 1 1.0 3.1 24 218
r 1.6751 1 2 tcp 1040 ------- 1 1.0 3.1 21 212
- 1.676767 1 2 tcp 1040 ------- 1 1.0 3.1 24 218
r 1.677873 1 2 tcp 1040 ------- 1 1.0 3.1 22 213
+ 1.68066 1 2 tcp 1040 ------- 1 1.0 3.1 25 222
- 1.68066 1 2 tcp 1040 ------- 1 1.0 3.1 25 222
+ 1.68066 1 2 tcp 1040 ------- 1 1.0 3.1 26 223
r 1.681767 1 2 tcp 1040 ------- 1 1.0 3.1 23 217
- 1.683433 1 2 tcp 1040 ------- 1 1.0 3.1 26 223
r 1.68454 1 2 tcp 1040 ------- 1 1.0 3.1 24 218
+ 1.686207 1 2 tcp 1040 ------- 1 1.0 3.1 27 225
+ 1.686207 1 2 tcp 1040 ------- 1 1.0 3.1 28 226
- 1.686207 1 2 tcp 1040 ------- 1 1.0 3.1 27 225
r 1.688433 1 2 tcp 1040 ------- 1 1.0 3.1 25 222
- 1.68898 1 2 tcp 1040 ------- 1 1.0 3.1 28 226
r 1.691207 1 2 tcp 1040 ------- 1 1.0 3.1 26 223
+ 1.692873 1 2 tcp 1040 ------- 1 1.0 3.1 29 230
- 1.692873 1 2 tcp 1040 ------- 1 1.0 3.1 29 230
+ 1.692873 1 2 tcp 1040 ------- 1 1.0 3.1 30 231
r 1.69398 1 2 tcp 1040 ------- 1 1.0 3.1 27 225
- 1.695647 1 2 tcp 1040 ------- 1 1.0 3.1 30 231
r 1.696753 1 2 tcp 1040 ------- 1 1.0 3.1 28 226
r 1.700647 1 2 tcp 1040 ------- 1 1.0 3.1 29 230
r 1.70342 1 2 tcp 1040 ------- 1 1.0 3.1 30 231
+ 1.70402 1 2 tcp 1040 ------- 1 1.0 3.1 31 237
- 1.70402 1 2 tcp 1040 ------- 1 1.0 3.1 31 237
+ 1.70402 1 2 tcp 1040 ------- 1 1.0 3.1 32 238
- 1.706793 1 2 tcp 1040 ------- 1 1.0 3.1 32 238
+ 1.709567 1 2 tcp 1040 ------- 1 1.0 3.1 33 242
+ 1.709567 1 2 tcp 1040 ------- 1 1.0 3.1 34 243
- 1.709567 1 2 tcp 1040 ------- 1 1.0 3.1 33 242
r 1.711793 1 2 tcp 1040 ------- 1 1.0 3.1 31 237
- 1.71234 1 2 tcp 1040 ------- 1 1.0 3.1 34 243
r 1.714567 1 2 tcp 1040 ------- 1 1.0 3.1 32 238
+ 1.716233 1 2 tcp 1040 ------- 1 1.0 3.1 35 246
- 1.716233 1 2 tcp 1040 ------- 1 1.0 3.1 35 246
+ 1.716233 1 2 tcp 1040 ------- 1 1.0 3.1 36 247
r 1.71734 1 2 tcp 1040 ------- 1 1.0 3.1 33 242
- 1.719007 1 2 tcp 1040 ------- 1 1.0 3.1 36 247
r 1.720113 1 2 tcp 1040 ------- 1 1.0 3.1 34 243
+ 1.7229 1 2 tcp 1040 ------- 1 1.0 3.1 37 251
- 1.7229 1 2 tcp 1040 ------- 1 1.0 3.1 37 251
+ 1.7229 1 2 tcp 1040 ------- 1 1.0 3.1 38 252
r 1.724007 1 2 tcp 1040 ------- 1 1.0 3.1 35 246
- 1.725673 1 2 tcp 1040 ------- 1 1.0 3.1 38 252
r 1.72678 1 2 tcp 1040 ------- 1 1.0 3.1 36 247
+ 1.729567 1 2 tcp 1040 ------- 1 1.0 3.1 39 256
- 1.729567 1 2 tcp 1040 ------- 1 1.0 3.1 39 256
r 1.730673 1 2 tcp 1040 ------- 1 1.0 3.1 37 251
r 1.733447 1 2 tcp 1040 ------- 1 1.0 3.1 38 252
+ 1.736233 1 2 tcp 1040 ------- 1 1.0 3.1 40 260
- 1.736233 1 2 tcp 1040 ------- 1 1.0 3.1 40 260
r 1.73734 1 2 tcp 1040 ------- 1 1.0 3.1 39 256
+ 1.7429 1 2 tcp 1040 ------- 1 1.0 3.1 41 264
- 1.7429 1 2 tcp 1040 ------- 1 1.0 3.1 41 264
r 1.744007 1 2 tcp 1040 ------- 1 1.0 3.1 40 260
+ 1.749567 1 2 tcp 1040 ------- 1 1.0 3.1 42 267
- 1.749567 1 2 tcp 1040 ------- 1 1.0 3.1 42 267
r 1.750673 1 2 tcp 1040 ------- 1 1.0 3.1 41 264
+ 1.756233 1 2 tcp 1040 ------- 1 1.0 3.1 43 271
- 1.756233 1 2 tcp 1040 ------- 1 1.0 3.1 43 271
r 1.75734 1 2 tcp 1040 ------- 1 1.0 3.1 42 267
+ 1.7629 1 2 tcp 1040 ------- 1 1.0 3.1 44 275
- 1.7629 1 2 tcp 1040 ------- 1 1.0 3.1 44 275
r 1.764007 1 2 tcp 1040 ------- 1 1.0 3.1 43 271
+ 1.769567 1 2 tcp 1040 ------- 1 1.0 3.1 45 279
- 1.769567 1 2 tcp 1040 ------- 1 1.0 3.1 45 279
r 1.770673 1 2 tcp 1040 ------- 1 1.0 3.1 44 275
+ 1.775113 1 2 tcp 1040 ------- 1 1.0 3.1 46 282
- 1.775113 1 2 tcp 1040 ------- 1 1.0 3.1 46 282
r 1.77734 1 2 tcp 1040 ------- 1 1.0 3.1 45 279
+ 1.78178 1 2 tcp 1040 ------- 1 1.0 3.1 47 286
- 1.78178 1 2 tcp 1040 ------- 1 1.0 3.1 47 286
r 1.782887 1 2 tcp 1040 ------- 1 1.0 3.1 46 282
+ 1.788447 1 2 tcp 1040 ------- 1 1.0 3.1 48 290
- 1.788447 1 2 tcp 1040 ------- 1 1.0 3.1 48 290
r 1.789553 1 2 tcp 1040 ------- 1 1.0 3.1 47 286
+ 1.795113 1 2 tcp 1040 ------- 1 1.0 3.1 49 293
- 1.795113 1 2 tcp 1040 ------- 1 1.0 3.1 49 293
r 1.79622 1 2 tcp 1040 ------- 1 1.0 3.1 48 290
r 1.802887 1 2 tcp 1040 ------- 1 1.0 3.1 49 293
+ 1.817353 1 2 tcp 1040 ---A--- 1 1.0 3.1 30 303
- 1.817353 1 2 tcp 1040 ---A--- 1 1.0 3.1 30 303
r 1.825127 1 2 tcp 1040 ---A--- 1 1.0 3.1 30 303
+ 1.8941 1 2 tcp 1040 ------- 1 1.0 3.1 32 333
- 1.8941 1 2 tcp 1040 ------- 1 1.0 3.1 32 333
+ 1.8941 1 2 tcp 1040 ------- 1 1.0 3.1 33 334
- 1.896873 1 2 tcp 1040 ------- 1 1.0 3.1 33 334
r 1.901873 1 2 tcp 1040 ------- 1 1.0 3.1 32 333
r 1.904647 1 2 tcp 1040 ------- 1 1.0 3.1 33 334
+ 1.933797 1 2 tcp 1040 ------- 1 1.0 3.1 34 348
- 1.933797 1 2 tcp 1040 ------- 1 1.0 3.1 34 348
+ 1.933797 1 2 tcp 1040 ------- 1 1.0 3.1 35 349
- 1.93657 1 2 tcp 1040 ------- 1 1.0 3.1 35 349
+ 1.939343 1 2 tcp 1040 ------- 1 1.0 3.1 36 351
+ 1.939343 1 2 tcp 1040 ------- 1 1.0 3.1 37 352
+ 1.939343 1 2 tcp 1040 ------- 1 1.0 3.1 38 353
- 1.939343 1 2 tcp 1040 ------- 1 1.0 3.1 36 351
r 1.94157 1 2 tcp 1040 ------- 1 1.0 3.1 34 348
- 1.942117 1 2 tcp 1040 ------- 1 1.0 3.1 37 352
r 1.944343 1 2 tcp 1040 ------- 1 1.0 3.1 35 349
- 1.94489 1 2 tcp 1040 ------- 1 1.0 3.1 38 353
r 1.947117 1 2 tcp 1040 ------- 1 1.0 3.1 36 351
r 1.94989 1 2 tcp 1040 ------- 1 1.0 3.1 37 352
r 1.952663 1 2 tcp 1040 ------- 1 1.0 3.1 38 353
+ 1.972437 1 2 tcp 1040 ------- 1 1.0 3.1 39 366
- 1.972437 1 2 tcp 1040 ------- 1 1.0 3.1 39 366
+ 1.979103 1 2 tcp 1040 ------- 1 1.0 3.1 40 370
- 1.979103 1 2 tcp 1040 ------- 1 1.0 3.1 40 370
+ 1.979103 1 2 tcp 1040 ------- 1 1.0 3.1 41 371
r 1.98021 1 2 tcp 1040 ------- 1 1.0 3.1 39 366
- 1.981877 1 2 tcp 1040 ------- 1 1.0 3.1 41 371
+ 1.98577 1 2 tcp 1040 ------- 1 1.0 3.1 42 374
- 1.98577 1 2 tcp 1040 ------- 1 1.0 3.1 42 374
r 1.986877 1 2 tcp 1040 ------- 1 1.0 3.1 40 370
r 1.98965 1 2 tcp 1040 ------- 1 1.0 3.1 41 371
+ 1.991317 1 2 tcp 1040 ------- 1 1.0 3.1 43 377
- 1.991317 1 2 tcp 1040 ------- 1 1.0 3.1 43 377
+ 1.991317 1 2 tcp 1040 ------- 1 1.0 3.1 44 378
r 1.993543 1 2 tcp 1040 ------- 1 1.0 3.1 42 374
- 1.99409 1 2 tcp 1040 ------- 1 1.0 3.1 44 378
+ 1.997983 1 2 tcp 1040 ------- 1 1.0 3.1 45 382
- 1.997983 1 2 tcp 1040 ------- 1 1.0 3.1 45 382
r 1.99909 1 2 tcp 1040 ------- 1 1.0 3.1 43 377
r 2.001863 1 2 tcp 1040 ------- 1 1.0 3.1 44 378
r 2.005757 1 2 tcp 1040 ------- 1 1.0 3.1 45 382
+ 2.01137 1 2 tcp 1040 ------- 1 1.0 3.1 46 388
- 2.01137 1 2 tcp 1040 ------- 1 1.0 3.1 46 388
+ 2.01137 1 2 tcp 1040 ------- 1 1.0 3.1 47 389
+ 2.01137 1 2 tcp 1040 ------- 1 1.0 3.1 48 390
+ 2.01137 1 2 tcp 1040 ------- 1 1.0 3.1 49 391
+ 2.01137 1 2 tcp 1040 ------- 1 1.0 3.1 50 392
- 2.014143 1 2 tcp 1040 ------- 1 1.0 3.1 47 389
- 2.016917 1 2 tcp 1040 ------- 1 1.0 3.1 48 390
r 2.019143 1 2 tcp 1040 ------- 1 1.0 3.1 46 388
+ 2.019157 1 2 tcp 1040 ------- 1 1.0 3.1 51 396
- 2.01969 1 2 tcp 1040 ------- 1 1.0 3.1 49 391
r 2.021917 1 2 tcp 1040 ------- 1 1.0 3.1 47 389
- 2.022463 1 2 tcp 1040 ------- 1 1.0 3.1 50 392
r 2.02469 1 2 tcp 1040 ------- 1 1.0 3.1 48 390
- 2.025237 1 2 tcp 1040 ------- 1 1.0 3.1 51 396
+ 2.025823 1 2 tcp 1040 ------- 1 1.0 3.1 52 400
r 2.027463 1 2 tcp 1040 ------- 1 1.0 3.1 49 391
- 2.02801 1 2 tcp 1040 ------- 1 1.0 3.1 52 400
r 2.030237 1 2 tcp 1040 ------- 1 1.0 3.1 50 392
r 2.03301 1 2 tcp 1040 ------- 1 1.0 3.1 51 396
r 2.035783 1 2 tcp 1040 ------- 1 1.0 3.1 52 400
+ 2.045823 1 2 tcp 1040 ------- 1 1.0 3.1 53 408
- 2.045823 1 2 tcp 1040 ------- 1 1.0 3.1 53 408
+ 2.045823 1 2 tcp 1040 ------- 1 1.0 3.1 54 409
- 2.048597 1 2 tcp 1040 ------- 1 1.0 3.1 54 409
+ 2.05249 1 2 tcp 1040 ------- 1 1.0 3.1 55 413
- 2.05249 1 2 tcp 1040 ------- 1 1.0 3.1 55 413
r 2.053597 1 2 tcp 1040 ------- 1 1.0 3.1 53 408
r 2.05637 1 2 tcp 1040 ------- 1 1.0 3.1 54 409
r 2.060263 1 2 tcp 1040 ------- 1 1.0 3.1 55 413
+ 2.062517 1 2 tcp 1040 ------- 1 1.0 3.1 56 419
- 2.062517 1 2 tcp 1040 ------- 1 1.0 3.1 56 419
+ 2.069183 1 2 tcp 1040 ------- 1 1.0 3.1 57 423
- 2.069183 1 2 tcp 1040 ------- 1 1.0 3.1 57 423
+ 2.069183 1 2 tcp 1040 ------- 1 1.0 3.1 58 424
r 2.07029 1 2 tcp 1040 ------- 1 1.0 3.1 56 419
- 2.071957 1 2 tcp 1040 ------- 1 1.0 3.1 58 424
+ 2.07473 1 2 tcp 1040 ------- 1 1.0 3.1 59 427
- 2.07473 1 2 tcp 1040 ------- 1 1.0 3.1 59 427
r 2.076957 1 2 tcp 1040 ------- 1 1.0 3.1 57 423
r 2.07973 1 2 tcp 1040 ------- 1 1.0 3.1 58 424
+ 2.081397 1 2 tcp 1040 ------- 1 1.0 3.1 60 431
- 2.081397 1 2 tcp 1040 ------- 1 1.0 3.1 60 431
r 2.082503 1 2 tcp 1040 ------- 1 1.0 3.1 59 427
r 2.08917 1 2 tcp 1040 ------- 1 1.0 3.1 60 431
+ 2.09361 1 2 tcp 1040 ------- 1 1.0 3.1 61 436
- 2.09361 1 2 tcp 1040 ------- 1 1.0 3.1 61 436
+ 2.100277 1 2 tcp 1040 ------- 1 1.0 3.1 62 440
- 2.100277 1 2 tcp 1040 ------- 1 1.0 3.1 62 440
r 2.101383 1 2 tcp 1040 ------- 1 1.0 3.1 61 436
r 2.10805 1 2 tcp 1040 ------- 1 1.0 3.1 62 440
+ 2.111423 1 2 tcp 1040 ------- 1 1.0 3.1 63 446
- 2.111423 1 2 tcp 1040 ------- 1 1.0 3.1 63 446
+ 2.11809 1 2 tcp 1040 ------- 1 1.0 3.1 64 450
- 2.11809 1 2 tcp 1040 ------- 1 1.0 3.1 64 450
r 2.119197 1 2 tcp 1040 ------- 1 1.0 3.1 63 446
+ 2.124757 1 2 tcp 1040 ------- 1 1.0 3.1 65 452
- 2.124757 1 2 tcp 1040 ------- 1 1.0 3.1 65 452
r 2.125863 1 2 tcp 1040 ------- 1 1.0 3.1 64 450
r 2.13253 1 2 tcp 1040 ------- 1 1.0 3.1 65 452
+ 2.132543 1 2 tcp 1040 ------- 1 1.0 3.1 66 458
- 2.132543 1 2 tcp 1040 ------- 1 1.0 3.1 66 458
r 2.140317 1 2 tcp 1040 ------- 1 1.0 3.1 66 458
+ 2.14033 1 2 tcp 1040 ------- 1 1.0 3.1 67 462
- 2.14033 1 2 tcp 1040 ------- 1 1.0 3.1 67 462
+ 2.146997 1 2 tcp 1040 ------- 1 1.0 3.1 68 465
- 2.146997 1 2 tcp 1040 ------- 1 1.0 3.1 68 465
r 2.148103 1 2 tcp 1040 ------- 1 1.0 3.1 67 462
+ 2.153663 1 2 tcp 1040 ------- 1 1.0 3.1 69 468
- 2.153663 1 2 tcp 1040 ------- 1 1.0 3.1 69 468
r 2.15477 1 2 tcp 1040 ------- 1 1.0 3.1 68 465
+ 2.16033 1 2 tcp 1040 ------- 1 1.0 3.1 70 472
- 2.16033 1 2 tcp 1040 ------- 1 1.0 3.1 70 472
r 2.161437 1 2 tcp 1040 ------- 1 1.0 3.1 69 468
r 2.168103 1 2 tcp 1040 ------- 1 1.0 3.1 70 472
+ 2.170357 1 2 tcp 1040 ------- 1 1.0 3.1 71 477
- 2.170357 1 2 tcp 1040 ------- 1 1.0 3.1 71 477
+ 2.170357 1 2 tcp 1040 ------- 1 1.0 3.1 72 478
- 2.17313 1 2 tcp 1040 ------- 1 1.0 3.1 72 478
+ 2.177023 1 2 tcp 1040 ------- 1 1.0 3.1 73 481
- 2.177023 1 2 tcp 1040 ------- 1 1.0 3.1 73 481
r 2.17813 1 2 tcp 1040 ------- 1 1.0 3.1 71 477
r 2.180903 1 2 tcp 1040 ------- 1 1.0 3.1 72 478
r 2.184797 1 2 tcp 1040 ------- 1 1.0 3.1 73 481
+ 2.18593 1 2 tcp 1040 ------- 1 1.0 3.1 74 486
- 2.18593 1 2 tcp 1040 ------- 1 1.0 3.1 74 486
r 2.193703 1 2 tcp 1040 ------- 1 1.0 3.1 74 486
+ 2.193717 1 2 tcp 1040 ------- 1 1.0 3.1 75 490
- 2.193717 1 2 tcp 1040 ------- 1 1.0 3.1 75 490
r 2.20149 1 2 tcp 1040 ------- 1 1.0 3.1 75 490
+ 2.201503 1 2 tcp 1040 ------- 1 1.0 3.1 76 494
- 2.201503 1 2 tcp 1040 ------- 1 1.0 3.1 76 494
r 2.209277 1 2 tcp 1040 ------- 1 1.0 3.1 76 494
+ 2.20929 1 2 tcp 1040 ------- 1 1.0 3.1 77 498
- 2.20929 1 2 tcp 1040 ------- 1 1.0 3.1 77 498
r 2.217063 1 2 tcp 1040 ------- 1 1.0 3.1 77 498
+ 2.217077 1 2 tcp 1040 ------- 1 1.0 3.1 78 502
- 2.217077 1 2 tcp 1040 ------- 1 1.0 3.1 78 502
r 2.22485 1 2 tcp 1040 ------- 1 1.0 3.1 78 502
+ 2.224863 1 2 tcp 1040 ------- 1 1.0 3.1 79 506
- 2.224863 1 2 tcp 1040 ------- 1 1.0 3.1 79 506
r 2.232637 1 2 tcp 1040 ------- 1 1.0 3.1 79 506
+ 2.23265 1 2 tcp 1040 ------- 1 1.0 3.1 80 510
- 2.23265 1 2 tcp 1040 ------- 1 1.0 3.1 80 510
r 2.240423 1 2 tcp 1040 ------- 1 1.0 3.1 80 510
+ 2.240437 1 2 tcp 1040 ------- 1 1.0 3.1 81 515
- 2.240437 1 2 tcp 1040 ------- 1 1.0 3.1 81 515
r 2.24821 1 2 tcp 1040 ------- 1 1.0 3.1 81 515
+ 2.248223 1 2 tcp 1040 ------- 1 1.0 3.1 82 519
- 2.248223 1 2 tcp 1040 ------- 1 1.0 3.1 82 519
+ 2.25489 1 2 tcp 1040 ------- 1 1.0 3.1 83 523
- 2.25489 1 2 tcp 1040 ------- 1 1.0 3.1 83 523
+ 2.25489 1 2 tcp 1040 ------- 1 1.0 3.1 84 524
r 2.255997 1 2 tcp 1040 ------- 1 1.0 3.1 82 519
- 2.257663 1 2 tcp 1040 ------- 1 1.0 3.1 84 524
+ 2.261557 1 2 tcp 1040 ------- 1 1.0 3.1 85 527
- 2.261557 1 2 tcp 1040 ------- 1 1.0 3.1 85 527
r 2.262663 1 2 tcp 1040 ------- 1 1.0 3.1 83 523
r 2.265437 1 2 tcp 1040 ------- 1 1.0 3.1 84 524
r 2.26933 1 2 tcp 1040 ------- 1 1.0 3.1 85 527
+ 2.269343 1 2 tcp 1040 ------- 1 1.0 3.1 86 531
- 2.269343 1 2 tcp 1040 ------- 1 1.0 3.1 86 531
r 2.277117 1 2 tcp 1040 ------- 1 1.0 3.1 86 531
+ 2.27713 1 2 tcp 1040 ------- 1 1.0 3.1 87 535
- 2.27713 1 2 tcp 1040 ------- 1 1.0 3.1 87 535
r 2.284903 1 2 tcp 1040 ------- 1 1.0 3.1 87 535
+ 2.284917 1 2 tcp 1040 ------- 1 1.0 3.1 88 539
- 2.284917 1 2 tcp 1040 ------- 1 1.0 3.1 88 539
r 2.29269 1 2 tcp 1040 ------- 1 1.0 3.1 88 539
+ 2.293823 1 2 tcp 1040 ------- 1 1.0 3.1 89 544
- 2.293823 1 2 tcp 1040 ------- 1 1.0 3.1 89 544
r 2.301597 1 2 tcp 1040 ------- 1 1.0 3.1 89 544
+ 2.30161 1 2 tcp 1040 ------- 1 1.0 3.1 90 549
- 2.30161 1 2 tcp 1040 ------- 1 1.0 3.1 90 549
r 2.309383 1 2 tcp 1040 ------- 1 1.0 3.1 90 549
+ 2.309397 1 2 tcp 1040 ------- 1 1.0 3.1 91 553
- 2.309397 1 2 tcp 1040 ------- 1 1.0 3.1 91 553
+ 2.316063 1 2 tcp 1040 ------- 1 1.0 3.1 92 555
- 2.316063 1 2 tcp 1040 ------- 1 1.0 3.1 92 555
r 2.31717 1 2 tcp 1040 ------- 1 1.0 3.1 91 553
r 2.323837 1 2 tcp 1040 ------- 1 1.0 3.1 92 555
+ 2.32385 1 2 tcp 1040 ------- 1 1.0 3.1 93 560
- 2.32385 1 2 tcp 1040 ------- 1 1.0 3.1 93 560
r 2.331623 1 2 tcp 1040 ------- 1 1.0 3.1 93 560
+ 2.331637 1 2 tcp 1040 ------- 1 1.0 3.1 94 565
- 2.331637 1 2 tcp 1040 ------- 1 1.0 3.1 94 565
r 2.33941 1 2 tcp 1040 ------- 1 1.0 3.1 94 565
+ 2.339423 1 2 tcp 1040 ------- 1 1.0 3.1 95 568
- 2.339423 1 2 tcp 1040 ------- 1 1.0 3.1 95 568
+ 2.34497 1 2 tcp 1040 ------- 1 1.0 3.1 96 571
- 2.34497 1 2 tcp 1040 ------- 1 1.0 3.1 96 571
r 2.347197 1 2 tcp 1040 ------- 1 1.0 3.1 95 568
r 2.352743 1 2 tcp 1040 ------- 1 1.0 3.1 96 571
+ 2.354997 1 2 tcp 1040 ------- 1 1.0 3.1 97 576
- 2.354997 1 2 tcp 1040 ------- 1 1.0 3.1 97 576
r 2.36277 1 2 tcp 1040 ------- 1 1.0 3.1 97 576
+ 2.362783 1 2 tcp 1040 ------- 1 1.0 3.1 98 580
- 2.362783 1 2 tcp 1040 ------- 1 1.0 3.1 98 580
r 2.370557 1 2 tcp 1040 ------- 1 1.0 3.1 98 580
+ 2.37057 1 2 tcp 1040 ---A--- 1 1.0 3.1 85 584
- 2.37057 1 2 tcp 1040 ---A--- 1 1.0 3.1 85 584
r 2.378343 1 2 tcp 1040 ---A--- 1 1.0 3.1 85 584
+ 2.450677 1 2 tcp 1040 ------- 1 1.0 3.1 91 615
- 2.450677 1 2 tcp 1040 ------- 1 1.0 3.1 91 615
+ 2.450677 1 2 tcp 1040 ------- 1 1.0 3.1 92 616
- 2.45345 1 2 tcp 1040 ------- 1 1.0 3.1 92 616
r 2.45845 1 2 tcp 1040 ------- 1 1.0 3.1 91 615
r 2.461223 1 2 tcp 1040 ------- 1 1.0 3.1 92 616
+ 2.489317 1 2 tcp 1040 ------- 1 1.0 3.1 99 630
- 2.489317 1 2 tcp 1040 ------- 1 1.0 3.1 99 630
+ 2.489317 1 2 tcp 1040 ------- 1 1.0 3.1 100 631
+ 2.489317 1 2 tcp 1040 ------- 1 1.0 3.1 101 632
- 2.49209 1 2 tcp 1040 ------- 1 1.0 3.1 100 631
- 2.494863 1 2 tcp 1040 ------- 1 1.0 3.1 101 632
+ 2.495983 1 2 tcp 1040 ------- 1 1.0 3.1 102 634
r 2.49709 1 2 tcp 1040 ------- 1 1.0 3.1 99 630
- 2.497637 1 2 tcp 1040 ------- 1 1.0 3.1 102 634
r 2.499863 1 2 tcp 1040 ------- 1 1.0 3.1 100 631
r 2.502637 1 2 tcp 1040 ------- 1 1.0 3.1 101 632
r 2.50541 1 2 tcp 1040 ------- 1 1.0 3.1 102 634
+ 2.527957 1 2 tcp 1040 ------- 1 1.0 3.1 103 647
- 2.527957 1 2 tcp 1040 ------- 1 1.0 3.1 103 647
+ 2.534623 1 2 tcp 1040 ------- 1 1.0 3.1 104 651
- 2.534623 1 2 tcp 1040 ------- 1 1.0 3.1 104 651
+ 2.534623 1 2 tcp 1040 ------- 1 1.0 3.1 105 652
r 2.53573 1 2 tcp 1040 ------- 1 1.0 3.1 103 647
- 2.537397 1 2 tcp 1040 ------- 1 1.0 3.1 105 652
+ 2.54129 1 2 tcp 1040 ------- 1 1.0 3.1 106 655
- 2.54129 1 2 tcp 1040 ------- 1 1.0 3.1 106 655
+ 2.54129 1 2 tcp 1040 ------- 1 1.0 3.1 107 656
r 2.542397 1 2 tcp 1040 ------- 1 1.0 3.1 104 651
- 2.544063 1 2 tcp 1040 ------- 1 1.0 3.1 107 656
r 2.54517 1 2 tcp 1040 ------- 1 1.0 3.1 105 652
+ 2.546837 1 2 tcp 1040 ------- 1 1.0 3.1 108 658
- 2.546837 1 2 tcp 1040 ------- 1 1.0 3.1 108 658
r 2.549063 1 2 tcp 1040 ------- 1 1.0 3.1 106 655
r 2.551837 1 2 tcp 1040 ------- 1 1.0 3.1 107 656
r 2.55461 1 2 tcp 1040 ------- 1 1.0 3.1 108 658
+ 2.567547 1 2 tcp 1040 ------- 1 1.0 3.1 109 668
- 2.567547 1 2 tcp 1040 ------- 1 1.0 3.1 109 668
+ 2.574213 1 2 tcp 1040 ------- 1 1.0 3.1 110 671
- 2.574213 1 2 tcp 1040 ------- 1 1.0 3.1 110 671
r 2.57532 1 2 tcp 1040 ------- 1 1.0 3.1 109 668
+ 2.58088 1 2 tcp 1040 ------- 1 1.0 3.1 111 675
- 2.58088 1 2 tcp 1040 ------- 1 1.0 3.1 111 675
r 2.581987 1 2 tcp 1040 ------- 1 1.0 3.1 110 671
+ 2.587547 1 2 tcp 1040 ------- 1 1.0 3.1 112 679
- 2.587547 1 2 tcp 1040 ------- 1 1.0 3.1 112 679
r 2.588653 1 2 tcp 1040 ------- 1 1.0 3.1 111 675
+ 2.594213 1 2 tcp 1040 ------- 1 1.0 3.1 113 682
- 2.594213 1 2 tcp 1040 ------- 1 1.0 3.1 113 682
r 2.59532 1 2 tcp 1040 ------- 1 1.0 3.1 112 679
+ 2.60088 1 2 tcp 1040 ------- 1 1.0 3.1 114 685
- 2.60088 1 2 tcp 1040 ------- 1 1.0 3.1 114 685
+ 2.60088 1 2 tcp 1040 ------- 1 1.0 3.1 115 686
r 2.601987 1 2 tcp 1040 ------- 1 1.0 3.1 113 682
- 2.603653 1 2 tcp 1040 ------- 1 1.0 3.1 115 686
r 2.608653 1 2 tcp 1040 ------- 1 1.0 3.1 114 685
r 2.611427 1 2 tcp 1040 ------- 1 1.0 3.1 115 686
+ 2.612027 1 2 tcp 1040 ------- 1 1.0 3.1 116 691
- 2.612027 1 2 tcp 1040 ------- 1 1.0 3.1 116 691
r 2.6198 1 2 tcp 1040 ------- 1 1.0 3.1 116 691
+ 2.619813 1 2 tcp 1040 ------- 1 1.0 3.1 117 696
- 2.619813 1 2 tcp 1040 ------- 1 1.0 3.1 117 696
r 2.627587 1 2 tcp 1040 ------- 1 1.0 3.1 117 696
+ 2.6276 1 2 tcp 1040 ------- 1 1.0 3.1 118 701
- 2.6276 1 2 tcp 1040 ------- 1 1.0 3.1 118 701
+ 2.634267 1 2 tcp 1040 ------- 1 1.0 3.1 119 703
- 2.634267 1 2 tcp 1040 ------- 1 1.0 3.1 119 703
r 2.635373 1 2 tcp 1040 ------- 1 1.0 3.1 118 701
r 2.64204 1 2 tcp 1040 ------- 1 1.0 3.1 119 703
+ 2.642053 1 2 tcp 1040 ------- 1 1.0 3.1 120 708
- 2.642053 1 2 tcp 1040 ------- 1 1.0 3.1 120 708
r 2.649827 1 2 tcp 1040 ------- 1 1.0 3.1 120 708
+ 2.64984 1 2 tcp 1040 ------- 1 1.0 3.1 121 712
- 2.64984 1 2 tcp 1040 ------- 1 1.0 3.1 121 712
+ 2.656507 1 2 tcp 1040 ------- 1 1.0 3.1 122 715
- 2.656507 1 2 tcp 1040 ------- 1 1.0 3.1 122 715
+ 2.656507 1 2 tcp 1040 ------- 1 1.0 3.1 123 716
r 2.657613 1 2 tcp 1040 ------- 1 1.0 3.1 121 712
- 2.65928 1 2 tcp 1040 ------- 1 1.0 3.1 123 716
r 2.66428 1 2 tcp 1040 ------- 1 1.0 3.1 122 715
+ 2.664293 1 2 tcp 1040 ------- 1 1.0 3.1 124 720
- 2.664293 1 2 tcp 1040 ------- 1 1.0 3.1 124 720
r 2.667053 1 2 tcp 1040 ------- 1 1.0 3.1 123 716
r 2.672067 1 2 tcp 1040 ------- 1 1.0 3.1 124 720
+ 2.67208 1 2 tcp 1040 ------- 1 1.0 3.1 125 724
- 2.67208 1 2 tcp 1040 ------- 1 1.0 3.1 125 724
r 2.679853 1 2 tcp 1040 ------- 1 1.0 3.1 125 724
+ 2.679867 1 2 tcp 1040 ------- 1 1.0 3.1 126 728
- 2.679867 1 2 tcp 1040 ------- 1 1.0 3.1 126 728
r 2.68764 1 2 tcp 1040 ------- 1 1.0 3.1 126 728
+ 2.687653 1 2 tcp 1040 ------- 1 1.0 3.1 127 733
- 2.687653 1 2 tcp 1040 ------- 1 1.0 3.1 127 733
r 2.695427 1 2 tcp 1040 ------- 1 1.0 3.1 127 733
+ 2.69544 1 2 tcp 1040 ------- 1 1.0 3.1 128 737
- 2.69544 1 2 tcp 1040 ------- 1 1.0 3.1 128 737
r 2.703213 1 2 tcp 1040 ------- 1 1.0 3.1 128 737
+ 2.703227 1 2 tcp 1040 ------- 1 1.0 3.1 129 742
- 2.703227 1 2 tcp 1040 ------- 1 1.0 3.1 129 742
r 2.711 1 2 tcp 1040 ------- 1 1.0 3.1 129 742
+ 2.711013 1 2 tcp 1040 ------- 1 1.0 3.1 130 746
- 2.711013 1 2 tcp 1040 ------- 1 1.0 3.1 130 746
+ 2.71768 1 2 tcp 1040 ------- 1 1.0 3.1 131 750
- 2.71768 1 2 tcp 1040 ------- 1 1.0 3.1 131 750
r 2.718787 1 2 tcp 1040 ------- 1 1.0 3.1 130 746
+ 2.724347 1 2 tcp 1040 ------- 1 1.0 3.1 132 752
- 2.724347 1 2 tcp 1040 ------- 1 1.0 3.1 132 752
+ 2.724347 1 2 tcp 1040 ------- 1 1.0 3.1 133 753
r 2.725453 1 2 tcp 1040 ------- 1 1.0 3.1 131 750
- 2.72712 1 2 tcp 1040 ------- 1 1.0 3.1 133 753
r 2.73212 1 2 tcp 1040 ------- 1 1.0 3.1 132 752
+ 2.732133 1 2 tcp 1040 ------- 1 1.0 3.1 134 757
- 2.732133 1 2 tcp 1040 ------- 1 1.0 3.1 134 757
r 2.734893 1 2 tcp 1040 ------- 1 1.0 3.1 133 753
r 2.739907 1 2 tcp 1040 ------- 1 1.0 3.1 134 757
+ 2.73992 1 2 tcp 1040 ------- 1 1.0 3.1 135 761
- 2.73992 1 2 tcp 1040 ------- 1 1.0 3.1 135 761
r 2.747693 1 2 tcp 1040 ------- 1 1.0 3.1 135 761
+ 2.747707 1 2 tcp 1040 ------- 1 1.0 3.1 136 766
- 2.747707 1 2 tcp 1040 ------- 1 1.0 3.1 136 766
r 2.75548 1 2 tcp 1040 ------- 1 1.0 3.1 136 766
+ 2.755493 1 2 tcp 1040 ------- 1 1.0 3.1 137 770
- 2.755493 1 2 tcp 1040 ------- 1 1.0 3.1 137 770
r 2.763267 1 2 tcp 1040 ------- 1 1.0 3.1 137 770
+ 2.76328 1 2 tcp 1040 ------- 1 1.0 3.1 138 774
- 2.76328 1 2 tcp 1040 ------- 1 1.0 3.1 138 774
r 2.771053 1 2 tcp 1040 ------- 1 1.0 3.1 138 774
+ 2.771067 1 2 tcp 1040 ------- 1 1.0 3.1 139 778
- 2.771067 1 2 tcp 1040 ------- 1 1.0 3.1 139 778
r 2.77884 1 2 tcp 1040 ------- 1 1.0 3.1 139 778
+ 2.778853 1 2 tcp 1040 ------- 1 1.0 3.1 140 783
- 2.778853 1 2 tcp 1040 ------- 1 1.0 3.1 140 783
r 2.786627 1 2 tcp 1040 ------- 1 1.0 3.1 140 783
+ 2.78664 1 2 tcp 1040 ------- 1 1.0 3.1 141 787
- 2.78664 1 2 tcp 1040 ------- 1 1.0 3.1 141 787
+ 2.793307 1 2 tcp 1040 ------- 1 1.0 3.1 142 791
- 2.793307 1 2 tcp 1040 ------- 1 1.0 3.1 142 791
+ 2.793307 1 2 tcp 1040 ------- 1 1.0 3.1 143 792
r 2.794413 1 2 tcp 1040 ------- 1 1.0 3.1 141 787
- 2.79608 1 2 tcp 1040 ------- 1 1.0 3.1 143 792
+ 2.799973 1 2 tcp 1040 ------- 1 1.0 3.1 144 794
- 2.799973 1 2 tcp 1040 ------- 1 1.0 3.1 144 794
r 2.80108 1 2 tcp 1040 ------- 1 1.0 3.1 142 791
r 2.803853 1 2 tcp 1040 ------- 1 1.0 3.1 143 792
r 2.807747 1 2 tcp 1040 ------- 1 1.0 3.1 144 794
+ 2.80776 1 2 tcp 1040 ------- 1 1.0 3.1 145 799
- 2.80776 1 2 tcp 1040 ------- 1 1.0 3.1 145 799
r 2.815533 1 2 tcp 1040 ------- 1 1.0 3.1 145 799
+ 2.815547 1 2 tcp 1040 ------- 1 1.0 3.1 146 803
- 2.815547 1 2 tcp 1040 ------- 1 1.0 3.1 146 803
r 2.82332 1 2 tcp 1040 ------- 1 1.0 3.1 146 803
+ 2.823333 1 2 tcp 1040 ------- 1 1.0 3.1 147 807
- 2.823333 1 2 tcp 1040 ------- 1 1.0 3.1 147 807
r 2.831107 1 2 tcp 1040 ------- 1 1.0 3.1 147 807
+ 2.83112 1 2 tcp 1040 ------- 1 1.0 3.1 148 811
- 2.83112 1 2 tcp 1040 ------- 1 1.0 3.1 148 811
r 2.838893 1 2 tcp 1040 ------- 1 1.0 3.1 148 811
+ 2.838907 1 2 tcp 1040 ------- 1 1.0 3.1 149 815
- 2.838907 1 2 tcp 1040 ------- 1 1.0 3.1 149 815
r 2.84668 1 2 tcp 1040 ------- 1 1.0 3.1 149 815
+ 2.846693 1 2 tcp 1040 ------- 1 1.0 3.1 150 819
- 2.846693 1 2 tcp 1040 ------- 1 1.0 3.1 150 819
r 2.854467 1 2 tcp 1040 ------- 1 1.0 3.1 150 819
+ 2.8556 1 2 tcp 1040 ------- 1 1.0 3.1 151 824
- 2.8556 1 2 tcp 1040 ------- 1 1.0 3.1 151 824
+ 2.862267 1 2 tcp 1040 ------- 1 1.0 3.1 152 828
- 2.862267 1 2 tcp 1040 ------- 1 1.0 3.1 152 828
r 2.863373 1 2 tcp 1040 ------- 1 1.0 3.1 151 824
+ 2.868933 1 2 tcp 1040 ------- 1 1.0 3.1 153 832
- 2.868933 1 2 tcp 1040 ------- 1 1.0 3.1 153 832
r 2.87004 1 2 tcp 1040 ------- 1 1.0 3.1 152 828
+ 2.8756 1 2 tcp 1040 ------- 1 1.0 3.1 154 835
- 2.8756 1 2 tcp 1040 ------- 1 1.0 3.1 154 835
+ 2.8756 1 2 tcp 1040 ------- 1 1.0 3.1 155 836
r 2.876707 1 2 tcp 1040 ------- 1 1.0 3.1 153 832
- 2.878373 1 2 tcp 1040 ------- 1 1.0 3.1 155 836
r 2.883373 1 2 tcp 1040 ------- 1 1.0 3.1 154 835
+ 2.883387 1 2 tcp 1040 ------- 1 1.0 3.1 156 840
- 2.883387 1 2 tcp 1040 ------- 1 1.0 3.1 156 840
r 2.886147 1 2 tcp 1040 ------- 1 1.0 3.1 155 836
r 2.89116 1 2 tcp 1040 ------- 1 1.0 3.1 156 840
+ 2.891173 1 2 tcp 1040 ------- 1 1.0 3.1 157 844
- 2.891173 1 2 tcp 1040 ------- 1 1.0 3.1 157 844
r 2.898947 1 2 tcp 1040 ------- 1 1.0 3.1 157 844
+ 2.89896 1 2 tcp 1040 ------- 1 1.0 3.1 158 848
- 2.89896 1 2 tcp 1040 ------- 1 1.0 3.1 158 848
r 2.906733 1 2 tcp 1040 ------- 1 1.0 3.1 158 848
+ 2.906747 1 2 tcp 1040 ------- 1 1.0 3.1 159 852
- 2.906747 1 2 tcp 1040 ------- 1 1.0 3.1 159 852
r 2.91452 1 2 tcp 1040 ------- 1 1.0 3.1 159 852
+ 2.914533 1 2 tcp 1040 ------- 1 1.0 3.1 160 856
- 2.914533 1 2 tcp 1040 ------- 1 1.0 3.1 160 856
r 2.922307 1 2 tcp 1040 ------- 1 1.0 3.1 160 856
+ 2.92344 1 2 tcp 1040 ------- 1 1.0 3.1 161 860
- 2.92344 1 2 tcp 1040 ------- 1 1.0 3.1 161 860
r 2.931213 1 2 tcp 1040 ------- 1 1.0 3.1 161 860
+ 2.931227 1 2 tcp 1040 ------- 1 1.0 3.1 162 865
- 2.931227 1 2 tcp 1040 ------- 1 1.0 3.1 162 865
r 2.939 1 2 tcp 1040 ------- 1 1.0 3.1 162 865
+ 2.939013 1 2 tcp 1040 ------- 1 1.0 3.1 163 870
- 2.939013 1 2 tcp 1040 ------- 1 1.0 3.1 163 870
+ 2.94568 1 2 tcp 1040 ------- 1 1.0 3.1 164 873
- 2.94568 1 2 tcp 1040 ------- 1 1.0 3.1 164 873
r 2.946787 1 2 tcp 1040 ------- 1 1.0 3.1 163 870
r 2.953453 1 2 tcp 1040 ------- 1 1.0 3.1 164 873
+ 2.953467 1 2 tcp 1040 ------- 1 1.0 3.1 165 877
- 2.953467 1 2 tcp 1040 ------- 1 1.0 3.1 165 877
+ 2.960133 1 2 tcp 1040 ------- 1 1.0 3.1 166 881
- 2.960133 1 2 tcp 1040 ------- 1 1.0 3.1 166 881
+ 2.960133 1 2 tcp 1040 ------- 1 1.0 3.1 167 882
r 2.96124 1 2 tcp 1040 ------- 1 1.0 3.1 165 877
- 2.962907 1 2 tcp 1040 ------- 1 1.0 3.1 167 882
+ 2.9668 1 2 tcp 1040 ------- 1 1.0 3.1 168 885
- 2.9668 1 2 tcp 1040 ------- 1 1.0 3.1 168 885
r 2.967907 1 2 tcp 1040 ------- 1 1.0 3.1 166 881
r 2.97068 1 2 tcp 1040 ------- 1 1.0 3.1 167 882
r 2.974573 1 2 tcp 1040 ------- 1 1.0 3.1 168 885
+ 2.974587 1 2 tcp 1040 ------- 1 1.0 3.1 169 889
- 2.974587 1 2 tcp 1040 ------- 1 1.0 3.1 169 889
r 2.98236 1 2 tcp 1040 ------- 1 1.0 3.1 169 889
+ 2.982373 1 2 tcp 1040 ------- 1 1.0 3.1 170 893
- 2.982373 1 2 tcp 1040 ------- 1 1.0 3.1 170 893
r 2.990147 1 2 tcp 1040 ------- 1 1.0 3.1 170 893
+ 2.99128 1 2 tcp 1040 ------- 1 1.0 3.1 171 898
- 2.99128 1 2 tcp 1040 ------- 1 1.0 3.1 171 898
r 2.999053 1 2 tcp 1040 ------- 1 1.0 3.1 171 898
+ 2.999067 1 2 tcp 1040 ------- 1 1.0 3.1 172 902
- 2.999067 1 2 tcp 1040 ------- 1 1.0 3.1 172 902
r 3.00684 1 2 tcp 1040 ------- 1 1.0 3.1 172 902
+ 3.075813 1 2 tcp 1040 ---A--- 1 1.0 3.1 168 933
- 3.075813 1 2 tcp 1040 ---A--- 1 1.0 3.1 168 933
r 3.083587 1 2 tcp 1040 ---A--- 1 1.0 3.1 168 933
