+ 1 0 2 cbr 210 ------- 0 0.0 3.0 0 0
+ 1.00375 0 2 cbr 210 ------- 0 0.0 3.0 1 1
+ 1.0075 0 2 cbr 210 ------- 0 0.0 3.0 2 2
+ 1.01125 0 2 cbr 210 ------- 0 0.0 3.0 3 3
+ 1.015 0 2 cbr 210 ------- 0 0.0 3.0 4 4
+ 1.01875 0 2 cbr 210 ------- 0 0.0 3.0 5 5
+ 1.0225 0 2 cbr 210 ------- 0 0.0 3.0 6 6
+ 1.02625 0 2 cbr 210 ------- 0 0.0 3.0 7 7
+ 1.03 0 2 cbr 210 ------- 0 0.0 3.0 8 8
+ 1.03375 0 2 cbr 210 ------- 0 0.0 3.0 9 9
+ 1.0375 0 2 cbr 210 ------- 0 0.0 3.0 10 10
+ 1.04125 0 2 cbr 210 ------- 0 0.0 3.0 11 11
+ 1.045 0 2 cbr 210 ------- 0 0.0 3.0 12 12
+ 1.04875 0 2 cbr 210 ------- 0 0.0 3.0 13 13
+ 1.0525 0 2 cbr 210 ------- 0 0.0 3.0 14 14
+ 1.05625 0 2 cbr 210 ------- 0 0.0 3.0 15 15
+ 1.06 0 2 cbr 210 ------- 0 0.0 3.0 16 16
+ 1.06375 0 2 cbr 210 ------- 0 0.0 3.0 17 17
+ 1.0675 0 2 cbr 210 ------- 0 0.0 3.0 18 18
+ 1.07125 0 2 cbr 210 ------- 0 0.0 3.0 19 19
+ 1.075 0 2 cbr 210 ------- 0 0.0 3.0 20 20
+ 1.07875 0 2 cbr 210 ------- 0 0.0 3.0 21 21
+ 1.0825 0 2 cbr 210 ------- 0 0.0 3.0 22 22
+ 1.08625 0 2 cbr 210 ------- 0 0.0 3.0 23 23
+ 1.09 0 2 cbr 210 ------- 0 0.0 3.0 24 24
+ 1.09375 0 2 cbr 210 ------- 0 0.0 3.0 25 25
+ 1.0975 0 2 cbr 210 ------- 0 0.0 3.0 26 26
+ 1.10125 0 2 cbr 210 ------- 0 0.0 3.0 27 27
+ 1.105 0 2 cbr 210 ------- 0 0.0 3.0 28 28
+ 1.10875 0 2 cbr 210 ------- 0 0.0 3.0 29 29
+ 1.1125 0 2 cbr 210 ------- 0 0.0 3.0 30 30
+ 1.11625 0 2 cbr 210 ------- 0 0.0 3.0 31 31
+ 1.12 0 2 cbr 210 ------- 0 0.0 3.0 32 32
+ 1.12375 0 2 cbr 210 ------- 0 0.0 3.0 33 33
+ 1.1275 0 2 cbr 210 ------- 0 0.0 3.0 34 34
+ 1.13125 0 2 cbr 210 ------- 0 0.0 3.0 35 35
+ 1.135 0 2 cbr 210 ------- 0 0.0 3.0 36 36
+ 1.13875 0 2 cbr 210 ------- 0 0.0 3.0 37 37
+ 1.1425 0 2 cbr 210 ------- 0 0.0 3.0 38 38
+ 1.14625 0 2 cbr 210 ------- 0 0.0 3.0 39 39
+ 1.15 0 2 cbr 210 ------- 0 0.0 3.0 40 40
+ 1.15375 0 2 cbr 210 ------- 0 0.0 3.0 41 41
+ 1.1575 0 2 cbr 210 ------- 0 0.0 3.0 42 42
+ 1.16125 0 2 cbr 210 ------- 0 0.0 3.0 43 43
+ 1.165 0 2 cbr 210 ------- 0 0.0 3.0 44 44
+ 1.16875 0 2 cbr 210 ------- 0 0.0 3.0 45 45
+ 1.1725 0 2 cbr 210 ------- 0 0.0 3.0 46 46
+ 1.17625 0 2 cbr 210 ------- 0 0.0 3.0 47 47
+ 1.18 0 2 cbr 210 ------- 0 0.0 3.0 48 48
+ 1.18375 0 2 cbr 210 ------- 0 0.0 3.0 49 49
+ 1.1875 0 2 cbr 210 ------- 0 0.0 3.0 50 50
+ 1.19125 0 2 cbr 210 ------- 0 0.0 3.0 51 51
+ 1.195 0 2 cbr 210 ------- 0 0.0 3.0 52 52
+ 1.19875 0 2 cbr 210 ------- 0 0.0 3.0 53 53
+ 1.2025 0 2 cbr 210 ------- 0 0.0 3.0 54 54
+ 1.20625 0 2 cbr 210 ------- 0 0.0 3.0 55 55
+ 1.21 0 2 cbr 210 ------- 0 0.0 3.0 56 56
+ 1.21375 0 2 cbr 210 ------- 0 0.0 3.0 57 57
+ 1.2175 0 2 cbr 210 ------- 0 0.0 3.0 58 58
+ 1.22125 0 2 cbr 210 ------- 0 0.0 3.0 59 59
+ 1.225 0 2 cbr 210 ------- 0 0.0 3.0 60 60
+ 1.22875 0 2 cbr 210 ------- 0 0.0 3.0 61 61
+ 1.2325 0 2 cbr 210 ------- 0 0.0 3.0 62 62
+ 1.23625 0 2 cbr 210 ------- 0 0.0 3.0 63 63
+ 1.24 0 2 cbr 210 ------- 0 0.0 3.0 64 64
+ 1.24375 0 2 cbr 210 ------- 0 0.0 3.0 65 65
+ 1.2475 0 2 cbr 210 ------- 0 0.0 3.0 66 66
+ 1.25125 0 2 cbr 210 ------- 0 0.0 3.0 67 67
+ 1.255 0 2 cbr 210 ------- 0 0.0 3.0 68 68
+ 1.25875 0 2 cbr 210 ------- 0 0.0 3.0 69 69
+ 1.2625 0 2 cbr 210 ------- 0 0.0 3.0 70 70
+ 1.26625 0 2 cbr 210 ------- 0 0.0 3.0 71 71
+ 1.27 0 2 cbr 210 ------- 0 0.0 3.0 72 72
+ 1.27375 0 2 cbr 210 ------- 0 0.0 3.0 73 73
+ 1.2775 0 2 cbr 210 ------- 0 0.0 3.0 74 74
+ 1.28125 0 2 cbr 210 ------- 0 0.0 3.0 75 75
+ 1.285 0 2 cbr 210 ------- 0 0.0 3.0 76 76
+ 1.28875 0 2 cbr 210 ------- 0 0.0 3.0 77 77
+ 1.2925 0 2 cbr 210 ------- 0 0.0 3.0 78 78
+ 1.29625 0 2 cbr 210 ------- 0 0.0 3.0 79 79
+ 1.3 0 2 cbr 210 ------- 0 0.0 3.0 80 80
+ 1.30375 0 2 cbr 210 ------- 0 0.0 3.0 81 81
+ 1.3075 0 2 cbr 210 ------- 0 0.0 3.0 82 82
+ 1.31125 0 2 cbr 210 ------- 0 0.0 3.0 83 83
+ 1.315 0 2 cbr 210 ------- 0 0.0 3.0 84 84
+ 1.31875 0 2 cbr 210 ------- 0 0.0 3.0 85 85
+ 1.3225 0 2 cbr 210 ------- 0 0.0 3.0 86 86
+ 1.32625 0 2 cbr 210 ------- 0 0.0 3.0 87 87
+ 1.33 0 2 cbr 210 ------- 0 0.0 3.0 88 88
+ 1.33375 0 2 cbr 210 ------- 0 0.0 3.0 89 89
+ 1.3375 0 2 cbr 210 ------- 0 0.0 3.0 90 90
+ 1.34125 0 2 cbr 210 ------- 0 0.0 3.0 91 91
+ 1.345 0 2 cbr 210 ------- 0 0.0 3.0 92 92
+ 1.34875 0 2 cbr 210 ------- 0 0.0 3.0 93 93
+ 1.3525 0 2 cbr 210 ------- 0 0.0 3.0 94 94
+ 1.35625 0 2 cbr 210 ------- 0 0.0 3.0 95 95
+ 1.36 0 2 cbr 210 ------- 0 0.0 3.0 96 96
+ 1.36375 0 2 cbr 210 ------- 0 0.0 3.0 97 97
+ 1.3675 0 2 cbr 210 ------- 0 0.0 3.0 98 98
+ 1.37125 0 2 cbr 210 ------- 0 0.0 3.0 99 99
+ 1.375 0 2 cbr 210 ------- 0 0.0 3.0 100 100
+ 1.37875 0 2 cbr 210 ------- 0 0.0 3.0 101 101
+ 1.3825 0 2 cbr 210 ------- 0 0.0 3.0 102 102
+ 1.38625 0 2 cbr 210 ------- 0 0.0 3.0 103 103
+ 1.39 0 2 cbr 210 ------- 0 0.0 3.0 104 104
+ 1.39375 0 2 cbr 210 ------- 0 0.0 3.0 105 105
+ 1.3975 0 2 cbr 210 ------- 0 0.0 3.0 106 106
+ 1.40125 0 2 cbr 210 ------- 0 0.0 3.0 107 107
+ 1.405 0 2 cbr 210 ------- 0 0.0 3.0 108 108
+ 1.40875 0 2 cbr 210 ------- 0 0.0 3.0 109 109
+ 1.4125 0 2 cbr 210 ------- 0 0.0 3.0 110 110
+ 1.41625 0 2 cbr 210 ------- 0 0.0 3.0 111 111
+ 1.42 0 2 cbr 210 ------- 0 0.0 3.0 112 112
+ 1.42375 0 2 cbr 210 ------- 0 0.0 3.0 113 113
+ 1.4275 0 2 cbr 210 ------- 0 0.0 3.0 114 114
+ 1.43125 0 2 cbr 210 ------- 0 0.0 3.0 115 115
+ 1.435 0 2 cbr 210 ------- 0 0.0 3.0 116 116
+ 1.43875 0 2 cbr 210 ------- 0 0.0 3.0 117 117
+ 1.4425 0 2 cbr 210 ------- 0 0.0 3.0 118 118
+ 1.44625 0 2 cbr 210 ------- 0 0.0 3.0 119 119
+ 1.45 0 2 cbr 210 ------- 0 0.0 3.0 120 120
+ 1.45375 0 2 cbr 210 ------- 0 0.0 3.0 121 121
+ 1.4575 0 2 cbr 210 ------- 0 0.0 3.0 122 122
+ 1.46125 0 2 cbr 210 ------- 0 0.0 3.0 123 123
+ 1.465 0 2 cbr 210 ------- 0 0.0 3.0 124 124
+ 1.46875 0 2 cbr 210 ------- 0 0.0 3.0 125 125
+ 1.4725 0 2 cbr 210 ------- 0 0.0 3.0 126 126
+ 1.47625 0 2 cbr 210 ------- 0 0.0 3.0 127 127
+ 1.48 0 2 cbr 210 ------- 0 0.0 3.0 128 128
+ 1.48375 0 2 cbr 210 ------- 0 0.0 3.0 129 129
+ 1.4875 0 2 cbr 210 ------- 0 0.0 3.0 130 130
+ 1.49125 0 2 cbr 210 ------- 0 0.0 3.0 131 131
+ 1.495 0 2 cbr 210 ------- 0 0.0 3.0 132 132
+ 1.49875 0 2 cbr 210 ------- 0 0.0 3.0 133 133
+ 1.5025 0 2 cbr 210 ------- 0 0.0 3.0 134 135
+ 1.50625 0 2 cbr 210 ------- 0 0.0 3.0 135 136
+ 1.51 0 2 cbr 210 ------- 0 0.0 3.0 136 137
+ 1.51375 0 2 cbr 210 ------- 0 0.0 3.0 137 138
+ 1.5175 0 2 cbr 210 ------- 0 0.0 3.0 138 140
+ 1.52125 0 2 cbr 210 ------- 0 0.0 3.0 139 141
+ 1.525 0 2 cbr 210 ------- 0 0.0 3.0 140 142
+ 1.52875 0 2 cbr 210 ------- 0 0.0 3.0 141 143
+ 1.5325 0 2 cbr 210 ------- 0 0.0 3.0 142 146
+ 1.53625 0 2 cbr 210 ------- 0 0.0 3.0 143 147
+ 1.54 0 2 cbr 210 ------- 0 0.0 3.0 144 148
+ 1.54375 0 2 cbr 210 ------- 0 0.0 3.0 145 149
+ 1.5475 0 2 cbr 210 ------- 0 0.0 3.0 146 150
+ 1.55125 0 2 cbr 210 ------- 0 0.0 3.0 147 151
+ 1.555 0 2 cbr 210 ------- 0 0.0 3.0 148 153
+ 1.55875 0 2 cbr 210 ------- 0 0.0 3.0 149 154
+ 1.5625 0 2 cbr 210 ------- 0 0.0 3.0 150 156
+ 1.56625 0 2 cbr 210 ------- 0 0.0 3.0 151 157
+ 1.57 0 2 cbr 210 ------- 0 0.0 3.0 152 158
+ 1.57375 0 2 cbr 210 ------- 0 0.0 3.0 153 161
+ 1.5775 0 2 cbr 210 ------- 0 0.0 3.0 154 164
+ 1.58125 0 2 cbr 210 ------- 0 0.0 3.0 155 165
+ 1.585 0 2 cbr 210 ------- 0 0.0 3.0 156 166
+ 1.58875 0 2 cbr 210 ------- 0 0.0 3.0 157 167
+ 1.5925 0 2 cbr 210 ------- 0 0.0 3.0 158 168
+ 1.59625 0 2 cbr 210 ------- 0 0.0 3.0 159 170
+ 1.6 0 2 cbr 210 ------- 0 0.0 3.0 160 171
+ 1.60375 0 2 cbr 210 ------- 0 0.0 3.0 161 173
+ 1.6075 0 2 cbr 210 ------- 0 0.0 3.0 162 175
+ 1.61125 0 2 cbr 210 ------- 0 0.0 3.0 163 178
+ 1.615 0 2 cbr 210 ------- 0 0.0 3.0 164 180
+ 1.61875 0 2 cbr 210 ------- 0 0.0 3.0 165 183
+ 1.6225 0 2 cbr 210 ------- 0 0.0 3.0 166 186
+ 1.62625 0 2 cbr 210 ------- 0 0.0 3.0 167 187
+ 1.63 0 2 cbr 210 ------- 0 0.0 3.0 168 190
+ 1.63375 0 2 cbr 210 ------- 0 0.0 3.0 169 192
+ 1.6375 0 2 cbr 210 ------- 0 0.0 3.0 170 193
+ 1.64125 0 2 cbr 210 ------- 0 0.0 3.0 171 195
+ 1.645 0 2 cbr 210 ------- 0 0.0 3.0 172 196
+ 1.64875 0 2 cbr 210 ------- 0 0.0 3.0 173 200
+ 1.6525 0 2 cbr 210 ------- 0 0.0 3.0 174 202
+ 1.65625 0 2 cbr 210 ------- 0 0.0 3.0 175 205
+ 1.66 0 2 cbr 210 ------- 0 0.0 3.0 176 207
+ 1.66375 0 2 cbr 210 ------- 0 0.0 3.0 177 210
+ 1.6675 0 2 cbr 210 ------- 0 0.0 3.0 178 214
+ 1.67125 0 2 cbr 210 ------- 0 0.0 3.0 179 216
+ 1.675 0 2 cbr 210 ------- 0 0.0 3.0 180 219
+ 1.67875 0 2 cbr 210 ------- 0 0.0 3.0 181 221
+ 1.6825 0 2 cbr 210 ------- 0 0.0 3.0 182 224
+ 1.68625 0 2 cbr 210 ------- 0 0.0 3.0 183 227
+ 1.69 0 2 cbr 210 ------- 0 0.0 3.0 184 229
+ 1.69375 0 2 cbr 210 ------- 0 0.0 3.0 185 232
+ 1.6975 0 2 cbr 210 ------- 0 0.0 3.0 186 234
+ 1.70125 0 2 cbr 210 ------- 0 0.0 3.0 187 236
+ 1.705 0 2 cbr 210 ------- 0 0.0 3.0 188 239
+ 1.70875 0 2 cbr 210 ------- 0 0.0 3.0 189 241
+ 1.7125 0 2 cbr 210 ------- 0 0.0 3.0 190 244
+ 1.71625 0 2 cbr 210 ------- 0 0.0 3.0 191 248
+ 1.72 0 2 cbr 210 ------- 0 0.0 3.0 192 249
+ 1.72375 0 2 cbr 210 ------- 0 0.0 3.0 193 253
+ 1.7275 0 2 cbr 210 ------- 0 0.0 3.0 194 254
+ 1.73125 0 2 cbr 210 ------- 0 0.0 3.0 195 257
+ 1.735 0 2 cbr 210 ------- 0 0.0 3.0 196 259
+ 1.73875 0 2 cbr 210 ------- 0 0.0 3.0 197 261
+ 1.7425 0 2 cbr 210 ------- 0 0.0 3.0 198 263
+ 1.74625 0 2 cbr 210 ------- 0 0.0 3.0 199 265
+ 1.75 0 2 cbr 210 ------- 0 0.0 3.0 200 268
+ 1.75375 0 2 cbr 210 ------- 0 0.0 3.0 201 269
+ 1.7575 0 2 cbr 210 ------- 0 0.0 3.0 202 272
+ 1.76125 0 2 cbr 210 ------- 0 0.0 3.0 203 274
+ 1.765 0 2 cbr 210 ------- 0 0.0 3.0 204 276
+ 1.76875 0 2 cbr 210 ------- 0 0.0 3.0 205 278
+ 1.7725 0 2 cbr 210 ------- 0 0.0 3.0 206 280
+ 1.77625 0 2 cbr 210 ------- 0 0.0 3.0 207 283
+ 1.78 0 2 cbr 210 ------- 0 0.0 3.0 208 285
+ 1.78375 0 2 cbr 210 ------- 0 0.0 3.0 209 287
+ 1.7875 0 2 cbr 210 ------- 0 0.0 3.0 210 288
+ 1.79125 0 2 cbr 210 ------- 0 0.0 3.0 211 291
+ 1.795 0 2 cbr 210 ------- 0 0.0 3.0 212 292
+ 1.79875 0 2 cbr 210 ------- 0 0.0 3.0 213 295
+ 1.8025 0 2 cbr 210 ------- 0 0.0 3.0 214 297
+ 1.80625 0 2 cbr 210 ------- 0 0.0 3.0 215 298
+ 1.81 0 2 cbr 210 ------- 0 0.0 3.0 216 300
+ 1.81375 0 2 cbr 210 ------- 0 0.0 3.0 217 301
+ 1.8175 0 2 cbr 210 ------- 0 0.0 3.0 218 304
+ 1.82125 0 2 cbr 210 ------- 0 0.0 3.0 219 305
+ 1.825 0 2 cbr 210 ------- 0 0.0 3.0 220 307
+ 1.82875 0 2 cbr 210 ------- 0 0.0 3.0 221 309
+ 1.8325 0 2 cbr 210 ------- 0 0.0 3.0 222 310
+ 1.83625 0 2 cbr 210 ------- 0 0.0 3.0 223 312
+ 1.84 0 2 cbr 210 ------- 0 0.0 3.0 224 313
+ 1.84375 0 2 cbr 210 ------- 0 0.0 3.0 225 314
+ 1.8475 0 2 cbr 210 ------- 0 0.0 3.0 226 316
+ 1.85125 0 2 cbr 210 ------- 0 0.0 3.0 227 317
+ 1.855 0 2 cbr 210 ------- 0 0.0 3.0 228 319
+ 1.85875 0 2 cbr 210 ------- 0 0.0 3.0 229 320
+ 1.8625 0 2 cbr 210 ------- 0 0.0 3.0 230 322
+ 1.86625 0 2 cbr 210 ------- 0 0.0 3.0 231 323
+ 1.87 0 2 cbr 210 ------- 0 0.0 3.0 232 325
+ 1.87375 0 2 cbr 210 ------- 0 0.0 3.0 233 326
+ 1.8775 0 2 cbr 210 ------- 0 0.0 3.0 234 327
+ 1.88125 0 2 cbr 210 ------- 0 0.0 3.0 235 329
+ 1.885 0 2 cbr 210 ------- 0 0.0 3.0 236 330
+ 1.88875 0 2 cbr 210 ------- 0 0.0 3.0 237 331
+ 1.8925 0 2 cbr 210 ------- 0 0.0 3.0 238 332
+ 1.89625 0 2 cbr 210 ------- 0 0.0 3.0 239 335
+ 1.9 0 2 cbr 210 ------- 0 0.0 3.0 240 336
+ 1.90375 0 2 cbr 210 ------- 0 0.0 3.0 241 337
+ 1.9075 0 2 cbr 210 ------- 0 0.0 3.0 242 338
+ 1.91125 0 2 cbr 210 ------- 0 0.0 3.0 243 339
+ 1.915 0 2 cbr 210 ------- 0 0.0 3.0 244 340
+ 1.91875 0 2 cbr 210 ------- 0 0.0 3.0 245 342
+ 1.9225 0 2 cbr 210 ------- 0 0.0 3.0 246 343
+ 1.92625 0 2 cbr 210 ------- 0 0.0 3.0 247 345
+ 1.93 0 2 cbr 210 ------- 0 0.0 3.0 248 346
+ 1.93375 0 2 cbr 210 ------- 0 0.0 3.0 249 347
+ 1.9375 0 2 cbr 210 ------- 0 0.0 3.0 250 350
+ 1.94125 0 2 cbr 210 ------- 0 0.0 3.0 251 354
+ 1.945 0 2 cbr 210 ------- 0 0.0 3.0 252 355
+ 1.94875 0 2 cbr 210 ------- 0 0.0 3.0 253 356
+ 1.9525 0 2 cbr 210 ------- 0 0.0 3.0 254 357
+ 1.95625 0 2 cbr 210 ------- 0 0.0 3.0 255 358
+ 1.96 0 2 cbr 210 ------- 0 0.0 3.0 256 360
+ 1.96375 0 2 cbr 210 ------- 0 0.0 3.0 257 361
+ 1.9675 0 2 cbr 210 ------- 0 0.0 3.0 258 363
+ 1.97125 0 2 cbr 210 ------- 0 0.0 3.0 259 365
+ 1.975 0 2 cbr 210 ------- 0 0.0 3.0 260 367
+ 1.97875 0 2 cbr 210 ------- 0 0.0 3.0 261 369
+ 1.9825 0 2 cbr 210 ------- 0 0.0 3.0 262 372
+ 1.98625 0 2 cbr 210 ------- 0 0.0 3.0 263 375
+ 1.99 0 2 cbr 210 ------- 0 0.0 3.0 264 376
+ 1.99375 0 2 cbr 210 ------- 0 0.0 3.0 265 379
+ 1.9975 0 2 cbr 210 ------- 0 0.0 3.0 266 381
+ 2.00125 0 2 cbr 210 ------- 0 0.0 3.0 267 383
+ 2.005 0 2 cbr 210 ------- 0 0.0 3.0 268 385
+ 2.00875 0 2 cbr 210 ------- 0 0.0 3.0 269 386
+ 2.0125 0 2 cbr 210 ------- 0 0.0 3.0 270 393
+ 2.01625 0 2 cbr 210 ------- 0 0.0 3.0 271 394
+ 2.02 0 2 cbr 210 ------- 0 0.0 3.0 272 397
+ 2.02375 0 2 cbr 210 ------- 0 0.0 3.0 273 398
+ 2.0275 0 2 cbr 210 ------- 0 0.0 3.0 274 401
+ 2.03125 0 2 cbr 210 ------- 0 0.0 3.0 275 403
+ 2.035 0 2 cbr 210 ------- 0 0.0 3.0 276 404
+ 2.03875 0 2 cbr 210 ------- 0 0.0 3.0 277 406
+ 2.0425 0 2 cbr 210 ------- 0 0.0 3.0 278 407
+ 2.04625 0 2 cbr 210 ------- 0 0.0 3.0 279 410
+ 2.05 0 2 cbr 210 ------- 0 0.0 3.0 280 412
+ 2.05375 0 2 cbr 210 ------- 0 0.0 3.0 281 414
+ 2.0575 0 2 cbr 210 ------- 0 0.0 3.0 282 416
+ 2.06125 0 2 cbr 210 ------- 0 0.0 3.0 283 418
+ 2.065 0 2 cbr 210 ------- 0 0.0 3.0 284 420
+ 2.06875 0 2 cbr 210 ------- 0 0.0 3.0 285 422
+ 2.0725 0 2 cbr 210 ------- 0 0.0 3.0 286 425
+ 2.07625 0 2 cbr 210 ------- 0 0.0 3.0 287 428
+ 2.08 0 2 cbr 210 ------- 0 0.0 3.0 288 430
+ 2.08375 0 2 cbr 210 ------- 0 0.0 3.0 289 432
+ 2.0875 0 2 cbr 210 ------- 0 0.0 3.0 290 434
+ 2.09125 0 2 cbr 210 ------- 0 0.0 3.0 291 435
+ 2.095 0 2 cbr 210 ------- 0 0.0 3.0 292 437
+ 2.09875 0 2 cbr 210 ------- 0 0.0 3.0 293 439
+ 2.1025 0 2 cbr 210 ------- 0 0.0 3.0 294 441
+ 2.10625 0 2 cbr 210 ------- 0 0.0 3.0 295 443
+ 2.11 0 2 cbr 210 ------- 0 0.0 3.0 296 445
+ 2.11375 0 2 cbr 210 ------- 0 0.0 3.0 297 447
+ 2.1175 0 2 cbr 210 ------- 0 0.0 3.0 298 449
+ 2.12125 0 2 cbr 210 ------- 0 0.0 3.0 299 451
+ 2.125 0 2 cbr 210 ------- 0 0.0 3.0 300 453
+ 2.12875 0 2 cbr 210 ------- 0 0.0 3.0 301 455
+ 2.1325 0 2 cbr 210 ------- 0 0.0 3.0 302 457
+ 2.13625 0 2 cbr 210 ------- 0 0.0 3.0 303 459
+ 2.14 0 2 cbr 210 ------- 0 0.0 3.0 304 461
+ 2.14375 0 2 cbr 210 ------- 0 0.0 3.0 305 463
+ 2.1475 0 2 cbr 210 ------- 0 0.0 3.0 306 466
+ 2.15125 0 2 cbr 210 ------- 0 0.0 3.0 307 467
+ 2.155 0 2 cbr 210 ------- 0 0.0 3.0 308 469
+ 2.15875 0 2 cbr 210 ------- 0 0.0 3.0 309 471
+ 2.1625 0 2 cbr 210 ------- 0 0.0 3.0 310 474
+ 2.16625 0 2 cbr 210 ------- 0 0.0 3.0 311 475
+ 2.17 0 2 cbr 210 ------- 0 0.0 3.0 312 476
+ 2.17375 0 2 cbr 210 ------- 0 0.0 3.0 313 480
+ 2.1775 0 2 cbr 210 ------- 0 0.0 3.0 314 482
+ 2.18125 0 2 cbr 210 ------- 0 0.0 3.0 315 484
+ 2.185 0 2 cbr 210 ------- 0 0.0 3.0 316 485
+ 2.18875 0 2 cbr 210 ------- 0 0.0 3.0 317 488
+ 2.1925 0 2 cbr 210 ------- 0 0.0 3.0 318 489
+ 2.19625 0 2 cbr 210 ------- 0 0.0 3.0 319 492
+ 2.2 0 2 cbr 210 ------- 0 0.0 3.0 320 493
+ 2.20375 0 2 cbr 210 ------- 0 0.0 3.0 321 496
+ 2.2075 0 2 cbr 210 ------- 0 0.0 3.0 322 497
+ 2.21125 0 2 cbr 210 ------- 0 0.0 3.0 323 500
+ 2.215 0 2 cbr 210 ------- 0 0.0 3.0 324 501
+ 2.21875 0 2 cbr 210 ------- 0 0.0 3.0 325 504
+ 2.2225 0 2 cbr 210 ------- 0 0.0 3.0 326 505
+ 2.22625 0 2 cbr 210 ------- 0 0.0 3.0 327 508
+ 2.23 0 2 cbr 210 ------- 0 0.0 3.0 328 509
+ 2.23375 0 2 cbr 210 ------- 0 0.0 3.0 329 512
+ 2.2375 0 2 cbr 210 ------- 0 0.0 3.0 330 513
+ 2.24125 0 2 cbr 210 ------- 0 0.0 3.0 331 516
+ 2.245 0 2 cbr 210 ------- 0 0.0 3.0 332 517
+ 2.24875 0 2 cbr 210 ------- 0 0.0 3.0 333 520
+ 2.2525 0 2 cbr 210 ------- 0 0.0 3.0 334 521
+ 2.25625 0 2 cbr 210 ------- 0 0.0 3.0 335 525
+ 2.26 0 2 cbr 210 ------- 0 0.0 3.0 336 526
+ 2.26375 0 2 cbr 210 ------- 0 0.0 3.0 337 529
+ 2.2675 0 2 cbr 210 ------- 0 0.0 3.0 338 530
+ 2.27125 0 2 cbr 210 ------- 0 0.0 3.0 339 533
+ 2.275 0 2 cbr 210 ------- 0 0.0 3.0 340 534
+ 2.27875 0 2 cbr 210 ------- 0 0.0 3.0 341 537
+ 2.2825 0 2 cbr 210 ------- 0 0.0 3.0 342 538
+ 2.28625 0 2 cbr 210 ------- 0 0.0 3.0 343 540
+ 2.29 0 2 cbr 210 ------- 0 0.0 3.0 344 542
+ 2.29375 0 2 cbr 210 ------- 0 0.0 3.0 345 543
+ 2.2975 0 2 cbr 210 ------- 0 0.0 3.0 346 546
+ 2.30125 0 2 cbr 210 ------- 0 0.0 3.0 347 548
+ 2.305 0 2 cbr 210 ------- 0 0.0 3.0 348 550
+ 2.30875 0 2 cbr 210 ------- 0 0.0 3.0 349 552
+ 2.3125 0 2 cbr 210 ------- 0 0.0 3.0 350 554
+ 2.31625 0 2 cbr 210 ------- 0 0.0 3.0 351 556
+ 2.32 0 2 cbr 210 ------- 0 0.0 3.0 352 558
+ 2.32375 0 2 cbr 210 ------- 0 0.0 3.0 353 559
+ 2.3275 0 2 cbr 210 ------- 0 0.0 3.0 354 562
+ 2.33125 0 2 cbr 210 ------- 0 0.0 3.0 355 564
+ 2.335 0 2 cbr 210 ------- 0 0.0 3.0 356 566
+ 2.33875 0 2 cbr 210 ------- 0 0.0 3.0 357 567
+ 2.3425 0 2 cbr 210 ------- 0 0.0 3.0 358 570
+ 2.34625 0 2 cbr 210 ------- 0 0.0 3.0 359 572
+ 2.35 0 2 cbr 210 ------- 0 0.0 3.0 360 574
+ 2.35375 0 2 cbr 210 ------- 0 0.0 3.0 361 575
+ 2.3575 0 2 cbr 210 ------- 0 0.0 3.0 362 578
+ 2.36125 0 2 cbr 210 ------- 0 0.0 3.0 363 579
+ 2.365 0 2 cbr 210 ------- 0 0.0 3.0 364 582
+ 2.36875 0 2 cbr 210 ------- 0 0.0 3.0 365 583
+ 2.3725 0 2 cbr 210 ------- 0 0.0 3.0 366 586
+ 2.37625 0 2 cbr 210 ------- 0 0.0 3.0 367 587
+ 2.38 0 2 cbr 210 ------- 0 0.0 3.0 368 589
+ 2.38375 0 2 cbr 210 ------- 0 0.0 3.0 369 590
+ 2.3875 0 2 cbr 210 ------- 0 0.0 3.0 370 591
+ 2.39125 0 2 cbr 210 ------- 0 0.0 3.0 371 593
+ 2.395 0 2 cbr 210 ------- 0 0.0 3.0 372 594
+ 2.39875 0 2 cbr 210 ------- 0 0.0 3.0 373 596
+ 2.4025 0 2 cbr 210 ------- 0 0.0 3.0 374 597
+ 2.40625 0 2 cbr 210 ------- 0 0.0 3.0 375 599
+ 2.41 0 2 cbr 210 ------- 0 0.0 3.0 376 600
+ 2.41375 0 2 cbr 210 ------- 0 0.0 3.0 377 602
+ 2.4175 0 2 cbr 210 ------- 0 0.0 3.0 378 603
+ 2.42125 0 2 cbr 210 ------- 0 0.0 3.0 379 605
+ 2.425 0 2 cbr 210 ------- 0 0.0 3.0 380 606
+ 2.42875 0 2 cbr 210 ------- 0 0.0 3.0 381 608
+ 2.4325 0 2 cbr 210 ------- 0 0.0 3.0 382 609
+ 2.43625 0 2 cbr 210 ------- 0 0.0 3.0 383 611
+ 2.44 0 2 cbr 210 ------- 0 0.0 3.0 384 612
+ 2.44375 0 2 cbr 210 ------- 0 0.0 3.0 385 613
+ 2.4475 0 2 cbr 210 ------- 0 0.0 3.0 386 614
+ 2.45125 0 2 cbr 210 ------- 0 0.0 3.0 387 617
+ 2.455 0 2 cbr 210 ------- 0 0.0 3.0 388 618
+ 2.45875 0 2 cbr 210 ------- 0 0.0 3.0 389 619
+ 2.4625 0 2 cbr 210 ------- 0 0.0 3.0 390 620
+ 2.46625 0 2 cbr 210 ------- 0 0.0 3.0 391 621
+ 2.47 0 2 cbr 210 ------- 0 0.0 3.0 392 622
+ 2.47375 0 2 cbr 210 ------- 0 0.0 3.0 393 623
+ 2.4775 0 2 cbr 210 ------- 0 0.0 3.0 394 625
+ 2.48125 0 2 cbr 210 ------- 0 0.0 3.0 395 627
+ 2.485 0 2 cbr 210 ------- 0 0.0 3.0 396 628
+ 2.48875 0 2 cbr 210 ------- 0 0.0 3.0 397 629
+ 2.4925 0 2 cbr 210 ------- 0 0.0 3.0 398 633
+ 2.49625 0 2 cbr 210 ------- 0 0.0 3.0 399 635
+ 2.5 0 2 cbr 210 ------- 0 0.0 3.0 400 636
+ 2.50375 0 2 cbr 210 ------- 0 0.0 3.0 401 637
+ 2.5075 0 2 cbr 210 ------- 0 0.0 3.0 402 638
+ 2.51125 0 2 cbr 210 ------- 0 0.0 3.0 403 639
+ 2.515 0 2 cbr 210 ------- 0 0.0 3.0 404 641
+ 2.51875 0 2 cbr 210 ------- 0 0.0 3.0 405 642
+ 2.5225 0 2 cbr 210 ------- 0 0.0 3.0 406 644
+ 2.52625 0 2 cbr 210 ------- 0 0.0 3.0 407 646
+ 2.53 0 2 cbr 210 ------- 0 0.0 3.0 408 648
+ 2.53375 0 2 cbr 210 ------- 0 0.0 3.0 409 650
+ 2.5375 0 2 cbr 210 ------- 0 0.0 3.0 410 653
+ 2.54125 0 2 cbr 210 ------- 0 0.0 3.0 411 654
+ 2.545 0 2 cbr 210 ------- 0 0.0 3.0 412 657
+ 2.54875 0 2 cbr 210 ------- 0 0.0 3.0 413 659
+ 2.5525 0 2 cbr 210 ------- 0 0.0 3.0 414 661
+ 2.55625 0 2 cbr 210 ------- 0 0.0 3.0 415 662
+ 2.56 0 2 cbr 210 ------- 0 0.0 3.0 416 664
+ 2.56375 0 2 cbr 210 ------- 0 0.0 3.0 417 665
+ 2.5675 0 2 cbr 210 ------- 0 0.0 3.0 418 667
+ 2.57125 0 2 cbr 210 ------- 0 0.0 3.0 419 669
+ 2.575 0 2 cbr 210 ------- 0 0.0 3.0 420 672
+ 2.57875 0 2 cbr 210 ------- 0 0.0 3.0 421 673
+ 2.5825 0 2 cbr 210 ------- 0 0.0 3.0 422 676
+ 2.58625 0 2 cbr 210 ------- 0 0.0 3.0 423 678
+ 2.59 0 2 cbr 210 ------- 0 0.0 3.0 424 680
+ 2.59375 0 2 cbr 210 ------- 0 0.0 3.0 425 681
+ 2.5975 0 2 cbr 210 ------- 0 0.0 3.0 426 684
+ 2.60125 0 2 cbr 210 ------- 0 0.0 3.0 427 687
+ 2.605 0 2 cbr 210 ------- 0 0.0 3.0 428 689
+ 2.60875 0 2 cbr 210 ------- 0 0.0 3.0 429 690
+ 2.6125 0 2 cbr 210 ------- 0 0.0 3.0 430 693
+ 2.61625 0 2 cbr 210 ------- 0 0.0 3.0 431 694
+ 2.62 0 2 cbr 210 ------- 0 0.0 3.0 432 697
+ 2.62375 0 2 cbr 210 ------- 0 0.0 3.0 433 698
+ 2.6275 0 2 cbr 210 ------- 0 0.0 3.0 434 700
+ 2.63125 0 2 cbr 210 ------- 0 0.0 3.0 435 702
+ 2.635 0 2 cbr 210 ------- 0 0.0 3.0 436 705
+ 2.63875 0 2 cbr 210 ------- 0 0.0 3.0 437 706
+ 2.6425 0 2 cbr 210 ------- 0 0.0 3.0 438 709
+ 2.64625 0 2 cbr 210 ------- 0 0.0 3.0 439 710
+ 2.65 0 2 cbr 210 ------- 0 0.0 3.0 440 713
+ 2.65375 0 2 cbr 210 ------- 0 0.0 3.0 441 714
+ 2.6575 0 2 cbr 210 ------- 0 0.0 3.0 442 718
+ 2.66125 0 2 cbr 210 ------- 0 0.0 3.0 443 719
+ 2.665 0 2 cbr 210 ------- 0 0.0 3.0 444 722
+ 2.66875 0 2 cbr 210 ------- 0 0.0 3.0 445 723
+ 2.6725 0 2 cbr 210 ------- 0 0.0 3.0 446 726
+ 2.67625 0 2 cbr 210 ------- 0 0.0 3.0 447 727
+ 2.68 0 2 cbr 210 ------- 0 0.0 3.0 448 729
+ 2.68375 0 2 cbr 210 ------- 0 0.0 3.0 449 731
+ 2.6875 0 2 cbr 210 ------- 0 0.0 3.0 450 732
+ 2.69125 0 2 cbr 210 ------- 0 0.0 3.0 451 735
+ 2.695 0 2 cbr 210 ------- 0 0.0 3.0 452 736
+ 2.69875 0 2 cbr 210 ------- 0 0.0 3.0 453 739
+ 2.7025 0 2 cbr 210 ------- 0 0.0 3.0 454 741
+ 2.70625 0 2 cbr 210 ------- 0 0.0 3.0 455 743
+ 2.71 0 2 cbr 210 ------- 0 0.0 3.0 456 745
+ 2.71375 0 2 cbr 210 ------- 0 0.0 3.0 457 747
+ 2.7175 0 2 cbr 210 ------- 0 0.0 3.0 458 749
+ 2.72125 0 2 cbr 210 ------- 0 0.0 3.0 459 751
+ 2.725 0 2 cbr 210 ------- 0 0.0 3.0 460 755
+ 2.72875 0 2 cbr 210 ------- 0 0.0 3.0 461 756
+ 2.7325 0 2 cbr 210 ------- 0 0.0 3.0 462 759
+ 2.73625 0 2 cbr 210 ------- 0 0.0 3.0 463 760
+ 2.74 0 2 cbr 210 ------- 0 0.0 3.0 464 762
+ 2.74375 0 2 cbr 210 ------- 0 0.0 3.0 465 764
+ 2.7475 0 2 cbr 210 ------- 0 0.0 3.0 466 765
+ 2.75125 0 2 cbr 210 ------- 0 0.0 3.0 467 768
+ 2.755 0 2 cbr 210 ------- 0 0.0 3.0 468 769
+ 2.75875 0 2 cbr 210 ------- 0 0.0 3.0 469 772
+ 2.7625 0 2 cbr 210 ------- 0 0.0 3.0 470 773
+ 2.76625 0 2 cbr 210 ------- 0 0.0 3.0 471 776
+ 2.77 0 2 cbr 210 ------- 0 0.0 3.0 472 777
+ 2.77375 0 2 cbr 210 ------- 0 0.0 3.0 473 780
+ 2.7775 0 2 cbr 210 ------- 0 0.0 3.0 474 781
+ 2.78125 0 2 cbr 210 ------- 0 0.0 3.0 475 784
+ 2.785 0 2 cbr 210 ------- 0 0.0 3.0 476 786
+ 2.78875 0 2 cbr 210 ------- 0 0.0 3.0 477 788
+ 2.7925 0 2 cbr 210 ------- 0 0.0 3.0 478 790
+ 2.79625 0 2 cbr 210 ------- 0 0.0 3.0 479 793
+ 2.8 0 2 cbr 210 ------- 0 0.0 3.0 480 795
+ 2.80375 0 2 cbr 210 ------- 0 0.0 3.0 481 797
+ 2.8075 0 2 cbr 210 ------- 0 0.0 3.0 482 798
+ 2.81125 0 2 cbr 210 ------- 0 0.0 3.0 483 801
+ 2.815 0 2 cbr 210 ------- 0 0.0 3.0 484 802
+ 2.81875 0 2 cbr 210 ------- 0 0.0 3.0 485 805
+ 2.8225 0 2 cbr 210 ------- 0 0.0 3.0 486 806
+ 2.82625 0 2 cbr 210 ------- 0 0.0 3.0 487 809
+ 2.83 0 2 cbr 210 ------- 0 0.0 3.0 488 810
+ 2.83375 0 2 cbr 210 ------- 0 0.0 3.0 489 813
+ 2.8375 0 2 cbr 210 ------- 0 0.0 3.0 490 814
+ 2.84125 0 2 cbr 210 ------- 0 0.0 3.0 491 817
+ 2.845 0 2 cbr 210 ------- 0 0.0 3.0 492 818
+ 2.84875 0 2 cbr 210 ------- 0 0.0 3.0 493 821
+ 2.8525 0 2 cbr 210 ------- 0 0.0 3.0 494 822
+ 2.85625 0 2 cbr 210 ------- 0 0.0 3.0 495 825
+ 2.86 0 2 cbr 210 ------- 0 0.0 3.0 496 826
+ 2.86375 0 2 cbr 210 ------- 0 0.0 3.0 497 829
+ 2.8675 0 2 cbr 210 ------- 0 0.0 3.0 498 830
+ 2.87125 0 2 cbr 210 ------- 0 0.0 3.0 499 833
+ 2.875 0 2 cbr 210 ------- 0 0.0 3.0 500 834
+ 2.87875 0 2 cbr 210 ------- 0 0.0 3.0 501 838
+ 2.8825 0 2 cbr 210 ------- 0 0.0 3.0 502 839
+ 2.88625 0 2 cbr 210 ------- 0 0.0 3.0 503 842
+ 2.89 0 2 cbr 210 ------- 0 0.0 3.0 504 843
+ 2.89375 0 2 cbr 210 ------- 0 0.0 3.0 505 846
+ 2.8975 0 2 cbr 210 ------- 0 0.0 3.0 506 847
+ 2.90125 0 2 cbr 210 ------- 0 0.0 3.0 507 850
+ 2.905 0 2 cbr 210 ------- 0 0.0 3.0 508 851
+ 2.90875 0 2 cbr 210 ------- 0 0.0 3.0 509 854
+ 2.9125 0 2 cbr 210 ------- 0 0.0 3.0 510 855
+ 2.91625 0 2 cbr 210 ------- 0 0.0 3.0 511 858
+ 2.92 0 2 cbr 210 ------- 0 0.0 3.0 512 859
+ 2.92375 0 2 cbr 210 ------- 0 0.0 3.0 513 862
+ 2.9275 0 2 cbr 210 ------- 0 0.0 3.0 514 863
+ 2.93125 0 2 cbr 210 ------- 0 0.0 3.0 515 866
+ 2.935 0 2 cbr 210 ------- 0 0.0 3.0 516 867
+ 2.93875 0 2 cbr 210 ------- 0 0.0 3.0 517 869
+ 2.9425 0 2 cbr 210 ------- 0 0.0 3.0 518 871
+ 2.94625 0 2 cbr 210 ------- 0 0.0 3.0 519 874
+ 2.95 0 2 cbr 210 ------- 0 0.0 3.0 520 875
+ 2.95375 0 2 cbr 210 ------- 0 0.0 3.0 521 878
+ 2.9575 0 2 cbr 210 ------- 0 0.0 3.0 522 879
+ 2.96125 0 2 cbr 210 ------- 0 0.0 3.0 523 883
+ 2.965 0 2 cbr 210 ------- 0 0.0 3.0 524 884
+ 2.96875 0 2 cbr 210 ------- 0 0.0 3.0 525 887
+ 2.9725 0 2 cbr 210 ------- 0 0.0 3.0 526 888
+ 2.97625 0 2 cbr 210 ------- 0 0.0 3.0 527 891
+ 2.98 0 2 cbr 210 ------- 0 0.0 3.0 528 892
+ 2.98375 0 2 cbr 210 ------- 0 0.0 3.0 529 895
+ 2.9875 0 2 cbr 210 ------- 0 0.0 3.0 530 896
+ 2.99125 0 2 cbr 210 ------- 0 0.0 3.0 531 897
+ 2.995 0 2 cbr 210 ------- 0 0.0 3.0 532 900
+ 2.99875 0 2 cbr 210 ------- 0 0.0 3.0 533 901
+ 3.0025 0 2 cbr 210 ------- 0 0.0 3.0 534 904
+ 3.00625 0 2 cbr 210 ------- 0 0.0 3.0 535 906
+ 3.01 0 2 cbr 210 ------- 0 0.0 3.0 536 907
+ 3.01375 0 2 cbr 210 ------- 0 0.0 3.0 537 908
+ 3.0175 0 2 cbr 210 ------- 0 0.0 3.0 538 910
+ 3.02125 0 2 cbr 210 ------- 0 0.0 3.0 539 911
+ 3.025 0 2 cbr 210 ------- 0 0.0 3.0 540 913
+ 3.02875 0 2 cbr 210 ------- 0 0.0 3.0 541 914
+ 3.0325 0 2 cbr 210 ------- 0 0.0 3.0 542 916
+ 3.03625 0 2 cbr 210 ------- 0 0.0 3.0 543 918
+ 3.04 0 2 cbr 210 ------- 0 0.0 3.0 544 919
+ 3.04375 0 2 cbr 210 ------- 0 0.0 3.0 545 920
+ 3.0475 0 2 cbr 210 ------- 0 0.0 3.0 546 922
+ 3.05125 0 2 cbr 210 ------- 0 0.0 3.0 547 923
+ 3.055 0 2 cbr 210 ------- 0 0.0 3.0 548 925
+ 3.05875 0 2 cbr 210 ------- 0 0.0 3.0 549 926
+ 3.0625 0 2 cbr 210 ------- 0 0.0 3.0 550 928
+ 3.06625 0 2 cbr 210 ------- 0 0.0 3.0 551 929
+ 3.07 0 2 cbr 210 ------- 0 0.0 3.0 552 931
+ 3.07375 0 2 cbr 210 ------- 0 0.0 3.0 553 932
+ 3.0775 0 2 cbr 210 ------- 0 0.0 3.0 554 934
+ 3.08125 0 2 cbr 210 ------- 0 0.0 3.0 555 935
+ 3.085 0 2 cbr 210 ------- 0 0.0 3.0 556 936
+ 3.08875 0 2 cbr 210 ------- 0 0.0 3.0 557 937
+ 3.0925 0 2 cbr 210 ------- 0 0.0 3.0 558 938
+ 3.09625 0 2 cbr 210 ------- 0 0.0 3.0 559 939
+ 3.1 0 2 cbr 210 ------- 0 0.0 3.0 560 941
+ 3.10375 0 2 cbr 210 ------- 0 0.0 3.0 561 942
+ 3.1075 0 2 cbr 210 ------- 0 0.0 3.0 562 943
+ 3.11125 0 2 cbr 210 ------- 0 0.0 3.0 563 944
+ 3.115 0 2 cbr 210 ------- 0 0.0 3.0 564 945
+ 3.11875 0 2 cbr 210 ------- 0 0.0 3.0 565 946
+ 3.1225 0 2 cbr 210 ------- 0 0.0 3.0 566 947
+ 3.12625 0 2 cbr 210 ------- 0 0.0 3.0 567 948
+ 3.13 0 2 cbr 210 ------- 0 0.0 3.0 568 949
+ 3.13375 0 2 cbr 210 ------- 0 0.0 3.0 569 950
+ 3.1375 0 2 cbr 210 ------- 0 0.0 3.0 570 951
+ 3.14125 0 2 cbr 210 ------- 0 0.0 3.0 571 952
+ 3.145 0 2 cbr 210 ------- 0 0.0 3.0 572 953
+ 3.14875 0 2 cbr 210 ------- 0 0.0 3.0 573 954
+ 3.1525 0 2 cbr 210 ------- 0 0.0 3.0 574 955
+ 3.15625 0 2 cbr 210 ------- 0 0.0 3.0 575 956
+ 3.16 0 2 cbr 210 ------- 0 0.0 3.0 576 957
+ 3.16375 0 2 cbr 210 ------- 0 0.0 3.0 577 958
+ 3.1675 0 2 cbr 210 ------- 0 0.0 3.0 578 959
+ 3.17125 0 2 cbr 210 ------- 0 0.0 3.0 579 960
+ 3.175 0 2 cbr 210 ------- 0 0.0 3.0 580 961
+ 3.17875 0 2 cbr 210 ------- 0 0.0 3.0 581 962
+ 3.1825 0 2 cbr 210 ------- 0 0.0 3.0 582 963
+ 3.18625 0 2 cbr 210 ------- 0 0.0 3.0 583 964
+ 3.19 0 2 cbr 210 ------- 0 0.0 3.0 584 965
+ 3.19375 0 2 cbr 210 ------- 0 0.0 3.0 585 966
+ 3.1975 0 2 cbr 210 ------- 0 0.0 3.0 586 967
+ 3.20125 0 2 cbr 210 ------- 0 0.0 3.0 587 968
+ 3.205 0 2 cbr 210 ------- 0 0.0 3.0 588 969
+ 3.20875 0 2 cbr 210 ------- 0 0.0 3.0 589 970
+ 3.2125 0 2 cbr 210 ------- 0 0.0 3.0 590 971
+ 3.21625 0 2 cbr 210 ------- 0 0.0 3.0 591 972
+ 3.22 0 2 cbr 210 ------- 0 0.0 3.0 592 973
+ 3.22375 0 2 cbr 210 ------- 0 0.0 3.0 593 974
+ 3.2275 0 2 cbr 210 ------- 0 0.0 3.0 594 975
+ 3.23125 0 2 cbr 210 ------- 0 0.0 3.0 595 976
+ 3.235 0 2 cbr 210 ------- 0 0.0 3.0 596 977
+ 3.23875 0 2 cbr 210 ------- 0 0.0 3.0 597 978
+ 3.2425 0 2 cbr 210 ------- 0 0.0 3.0 598 979
+ 3.24625 0 2 cbr 210 ------- 0 0.0 3.0 599 980
+ 3.25 0 2 cbr 210 ------- 0 0.0 3.0 600 981
+ 3.25375 0 2 cbr 210 ------- 0 0.0 3.0 601 982
+ 3.2575 0 2 cbr 210 ------- 0 0.0 3.0 602 983
+ 3.26125 0 2 cbr 210 ------- 0 0.0 3.0 603 984
+ 3.265 0 2 cbr 210 ------- 0 0.0 3.0 604 985
+ 3.26875 0 2 cbr 210 ------- 0 0.0 3.0 605 986
+ 3.2725 0 2 cbr 210 ------- 0 0.0 3.0 606 987
+ 3.27625 0 2 cbr 210 ------- 0 0.0 3.0 607 988
+ 3.28 0 2 cbr 210 ------- 0 0.0 3.0 608 989
+ 3.28375 0 2 cbr 210 ------- 0 0.0 3.0 609 990
+ 3.2875 0 2 cbr 210 ------- 0 0.0 3.0 610 991
+ 3.29125 0 2 cbr 210 ------- 0 0.0 3.0 611 992
+ 3.295 0 2 cbr 210 ------- 0 0.0 3.0 612 993
+ 3.29875 0 2 cbr 210 ------- 0 0.0 3.0 613 994
+ 3.3025 0 2 cbr 210 ------- 0 0.0 3.0 614 995
+ 3.30625 0 2 cbr 210 ------- 0 0.0 3.0 615 996
+ 3.31 0 2 cbr 210 ------- 0 0.0 3.0 616 997
+ 3.31375 0 2 cbr 210 ------- 0 0.0 3.0 617 998
+ 3.3175 0 2 cbr 210 ------- 0 0.0 3.0 618 999
+ 3.32125 0 2 cbr 210 ------- 0 0.0 3.0 619 1000
+ 3.325 0 2 cbr 210 ------- 0 0.0 3.0 620 1001
+ 3.32875 0 2 cbr 210 ------- 0 0.0 3.0 621 1002
+ 3.3325 0 2 cbr 210 ------- 0 0.0 3.0 622 1003
+ 3.33625 0 2 cbr 210 ------- 0 0.0 3.0 623 1004
+ 3.34 0 2 cbr 210 ------- 0 0.0 3.0 624 1005
+ 3.34375 0 2 cbr 210 ------- 0 0.0 3.0 625 1006
+ 3.3475 0 2 cbr 210 ------- 0 0.0 3.0 626 1007
+ 3.35125 0 2 cbr 210 ------- 0 0.0 3.0 627 1008
+ 3.355 0 2 cbr 210 ------- 0 0.0 3.0 628 1009
+ 3.35875 0 2 cbr 210 ------- 0 0.0 3.0 629 1010
+ 3.3625 0 2 cbr 210 ------- 0 0.0 3.0 630 1011
+ 3.36625 0 2 cbr 210 ------- 0 0.0 3.0 631 1012
+ 3.37 0 2 cbr 210 ------- 0 0.0 3.0 632 1013
+ 3.37375 0 2 cbr 210 ------- 0 0.0 3.0 633 1014
+ 3.3775 0 2 cbr 210 ------- 0 0.0 3.0 634 1015
+ 3.38125 0 2 cbr 210 ------- 0 0.0 3.0 635 1016
+ 3.385 0 2 cbr 210 ------- 0 0.0 3.0 636 1017
+ 3.38875 0 2 cbr 210 ------- 0 0.0 3.0 637 1018
+ 3.3925 0 2 cbr 210 ------- 0 0.0 3.0 638 1019
+ 3.39625 0 2 cbr 210 ------- 0 0.0 3.0 639 1020
+ 3.4 0 2 cbr 210 ------- 0 0.0 3.0 640 1021