r 1.515643 2 3 tcp 40 ------- 1 1.0 3.1 0 134
r 1.554727 2 3 tcp 1040 ------- 1 1.0 3.1 1 144
r 1.560273 2 3 tcp 1040 ------- 1 1.0 3.1 2 145
r 1.593367 2 3 tcp 1040 ------- 1 1.0 3.1 3 159
r 1.600033 2 3 tcp 1040 ------- 1 1.0 3.1 4 160
r 1.6067 2 3 tcp 1040 ------- 1 1.0 3.1 5 162
r 1.612247 2 3 tcp 1040 ------- 1 1.0 3.1 6 163
r 1.632007 2 3 tcp 1040 ------- 1 1.0 3.1 7 176
r 1.638673 2 3 tcp 1040 ------- 1 1.0 3.1 8 177
r 1.64534 2 3 tcp 1040 ------- 1 1.0 3.1 9 181
r 1.652007 2 3 tcp 1040 ------- 1 1.0 3.1 10 182
r 1.658673 2 3 tcp 1040 ------- 1 1.0 3.1 11 184
r 1.66534 2 3 tcp 1040 ------- 1 1.0 3.1 12 185
r 1.670887 2 3 tcp 1040 ------- 1 1.0 3.1 13 188
r 1.677553 2 3 tcp 1040 ------- 1 1.0 3.1 14 189
r 1.6887 2 3 tcp 1040 ------- 1 1.0 3.1 15 198
r 1.694247 2 3 tcp 1040 ------- 1 1.0 3.1 16 199
r 1.700913 2 3 tcp 1040 ------- 1 1.0 3.1 17 203
r 1.70758 2 3 tcp 1040 ------- 1 1.0 3.1 18 204
r 1.714247 2 3 tcp 1040 ------- 1 1.0 3.1 19 208
r 1.720913 2 3 tcp 1040 ------- 1 1.0 3.1 20 209
r 1.72758 2 3 tcp 1040 ------- 1 1.0 3.1 21 212
r 1.734247 2 3 tcp 1040 ------- 1 1.0 3.1 22 213
r 1.740913 2 3 tcp 1040 ------- 1 1.0 3.1 23 217
r 1.74758 2 3 tcp 1040 ------- 1 1.0 3.1 24 218
r 1.754247 2 3 tcp 1040 ------- 1 1.0 3.1 25 222
r 1.759793 2 3 tcp 1040 ------- 1 1.0 3.1 26 223
r 1.76646 2 3 tcp 1040 ------- 1 1.0 3.1 27 225
r 1.773127 2 3 tcp 1040 ------- 1 1.0 3.1 28 226
r 1.779793 2 3 tcp 1040 ------- 1 1.0 3.1 29 230
r 1.78758 2 3 tcp 1040 ------- 1 1.0 3.1 31 237
r 1.795367 2 3 tcp 1040 ------- 1 1.0 3.1 34 243
r 1.802033 2 3 tcp 1040 ------- 1 1.0 3.1 36 247
r 1.8087 2 3 tcp 1040 ------- 1 1.0 3.1 38 252
r 1.815367 2 3 tcp 1040 ------- 1 1.0 3.1 40 260
r 1.822033 2 3 tcp 1040 ------- 1 1.0 3.1 41 264
r 1.8287 2 3 tcp 1040 ------- 1 1.0 3.1 42 267
r 1.835367 2 3 tcp 1040 ------- 1 1.0 3.1 43 271
r 1.844273 2 3 tcp 1040 ------- 1 1.0 3.1 45 279
r 1.85206 2 3 tcp 1040 ------- 1 1.0 3.1 46 282
r 1.860967 2 3 tcp 1040 ------- 1 1.0 3.1 48 290
r 1.867633 2 3 tcp 1040 ------- 1 1.0 3.1 49 293
r 1.87878 2 3 tcp 1040 ---A--- 1 1.0 3.1 30 303
r 1.918477 2 3 tcp 1040 ------- 1 1.0 3.1 32 333
r 1.924023 2 3 tcp 1040 ------- 1 1.0 3.1 33 334
r 1.957117 2 3 tcp 1040 ------- 1 1.0 3.1 34 348
r 1.963783 2 3 tcp 1040 ------- 1 1.0 3.1 35 349
r 1.97045 2 3 tcp 1040 ------- 1 1.0 3.1 36 351
r 1.975997 2 3 tcp 1040 ------- 1 1.0 3.1 37 352
r 1.982663 2 3 tcp 1040 ------- 1 1.0 3.1 38 353
r 1.99605 2 3 tcp 1040 ------- 1 1.0 3.1 39 366
r 2.003837 2 3 tcp 1040 ------- 1 1.0 3.1 40 370
r 2.010503 2 3 tcp 1040 ------- 1 1.0 3.1 41 371
r 2.01717 2 3 tcp 1040 ------- 1 1.0 3.1 42 374
r 2.023837 2 3 tcp 1040 ------- 1 1.0 3.1 43 377
r 2.030503 2 3 tcp 1040 ------- 1 1.0 3.1 44 378
r 2.03717 2 3 tcp 1040 ------- 1 1.0 3.1 45 382
r 2.047197 2 3 tcp 1040 ------- 1 1.0 3.1 46 388
r 2.053863 2 3 tcp 1040 ------- 1 1.0 3.1 47 389
r 2.05941 2 3 tcp 1040 ------- 1 1.0 3.1 48 390
r 2.066077 2 3 tcp 1040 ------- 1 1.0 3.1 49 391
r 2.072743 2 3 tcp 1040 ------- 1 1.0 3.1 50 392
r 2.07829 2 3 tcp 1040 ------- 1 1.0 3.1 51 396
r 2.084957 2 3 tcp 1040 ------- 1 1.0 3.1 52 400
r 2.096103 2 3 tcp 1040 ------- 1 1.0 3.1 53 408
r 2.10277 2 3 tcp 1040 ------- 1 1.0 3.1 54 409
r 2.109437 2 3 tcp 1040 ------- 1 1.0 3.1 55 413
r 2.117223 2 3 tcp 1040 ------- 1 1.0 3.1 56 419
r 2.12501 2 3 tcp 1040 ------- 1 1.0 3.1 57 423
r 2.131677 2 3 tcp 1040 ------- 1 1.0 3.1 58 424
r 2.138343 2 3 tcp 1040 ------- 1 1.0 3.1 59 427
r 2.14501 2 3 tcp 1040 ------- 1 1.0 3.1 60 431
r 2.155037 2 3 tcp 1040 ------- 1 1.0 3.1 61 436
r 2.161703 2 3 tcp 1040 ------- 1 1.0 3.1 62 440
r 2.17061 2 3 tcp 1040 ------- 1 1.0 3.1 63 446
r 2.178397 2 3 tcp 1040 ------- 1 1.0 3.1 64 450
r 2.186183 2 3 tcp 1040 ------- 1 1.0 3.1 65 452
r 2.19397 2 3 tcp 1040 ------- 1 1.0 3.1 66 458
r 2.201757 2 3 tcp 1040 ------- 1 1.0 3.1 67 462
r 2.209543 2 3 tcp 1040 ------- 1 1.0 3.1 68 465
r 2.21733 2 3 tcp 1040 ------- 1 1.0 3.1 69 468
r 2.225117 2 3 tcp 1040 ------- 1 1.0 3.1 70 472
r 2.232903 2 3 tcp 1040 ------- 1 1.0 3.1 71 477
r 2.23957 2 3 tcp 1040 ------- 1 1.0 3.1 72 478
r 2.246237 2 3 tcp 1040 ------- 1 1.0 3.1 73 481
r 2.254023 2 3 tcp 1040 ------- 1 1.0 3.1 74 486
r 2.26181 2 3 tcp 1040 ------- 1 1.0 3.1 75 490
r 2.269597 2 3 tcp 1040 ------- 1 1.0 3.1 76 494
r 2.278503 2 3 tcp 1040 ------- 1 1.0 3.1 77 498
r 2.28629 2 3 tcp 1040 ------- 1 1.0 3.1 78 502
r 2.294077 2 3 tcp 1040 ------- 1 1.0 3.1 79 506
r 2.300743 2 3 tcp 1040 ------- 1 1.0 3.1 80 510
r 2.30853 2 3 tcp 1040 ------- 1 1.0 3.1 81 515
r 2.316317 2 3 tcp 1040 ------- 1 1.0 3.1 82 519
r 2.324103 2 3 tcp 1040 ------- 1 1.0 3.1 83 523
r 2.32965 2 3 tcp 1040 ------- 1 1.0 3.1 84 524
r 2.339677 2 3 tcp 1040 ------- 1 1.0 3.1 86 531
r 2.347463 2 3 tcp 1040 ------- 1 1.0 3.1 87 535
r 2.35525 2 3 tcp 1040 ------- 1 1.0 3.1 88 539
r 2.363037 2 3 tcp 1040 ------- 1 1.0 3.1 89 544
r 2.370823 2 3 tcp 1040 ------- 1 1.0 3.1 90 549
r 2.37973 2 3 tcp 1040 ------- 1 1.0 3.1 92 555
r 2.387517 2 3 tcp 1040 ------- 1 1.0 3.1 93 560
r 2.395303 2 3 tcp 1040 ------- 1 1.0 3.1 94 565
r 2.40309 2 3 tcp 1040 ------- 1 1.0 3.1 95 568
r 2.410877 2 3 tcp 1040 ------- 1 1.0 3.1 96 571
r 2.418663 2 3 tcp 1040 ------- 1 1.0 3.1 97 576
r 2.42645 2 3 tcp 1040 ------- 1 1.0 3.1 98 580
r 2.435357 2 3 tcp 1040 ---A--- 1 1.0 3.1 85 584
r 2.473997 2 3 tcp 1040 ------- 1 1.0 3.1 91 615
r 2.480663 2 3 tcp 1040 ------- 1 1.0 3.1 92 616
r 2.512637 2 3 tcp 1040 ------- 1 1.0 3.1 99 630
r 2.519303 2 3 tcp 1040 ------- 1 1.0 3.1 100 631
r 2.52597 2 3 tcp 1040 ------- 1 1.0 3.1 101 632
r 2.531517 2 3 tcp 1040 ------- 1 1.0 3.1 102 634
r 2.552227 2 3 tcp 1040 ------- 1 1.0 3.1 103 647
r 2.558893 2 3 tcp 1040 ------- 1 1.0 3.1 104 651
r 2.56556 2 3 tcp 1040 ------- 1 1.0 3.1 105 652
r 2.572227 2 3 tcp 1040 ------- 1 1.0 3.1 106 655
r 2.578893 2 3 tcp 1040 ------- 1 1.0 3.1 107 656
r 2.58556 2 3 tcp 1040 ------- 1 1.0 3.1 108 658
r 2.596707 2 3 tcp 1040 ------- 1 1.0 3.1 109 668
r 2.604493 2 3 tcp 1040 ------- 1 1.0 3.1 110 671
r 2.61228 2 3 tcp 1040 ------- 1 1.0 3.1 111 675
r 2.618947 2 3 tcp 1040 ------- 1 1.0 3.1 112 679
r 2.626733 2 3 tcp 1040 ------- 1 1.0 3.1 113 682
r 2.63452 2 3 tcp 1040 ------- 1 1.0 3.1 114 685
r 2.641187 2 3 tcp 1040 ------- 1 1.0 3.1 115 686
r 2.648973 2 3 tcp 1040 ------- 1 1.0 3.1 116 691
r 2.65676 2 3 tcp 1040 ------- 1 1.0 3.1 117 696
r 2.664547 2 3 tcp 1040 ------- 1 1.0 3.1 118 701
r 2.672333 2 3 tcp 1040 ------- 1 1.0 3.1 119 703
r 2.68012 2 3 tcp 1040 ------- 1 1.0 3.1 120 708
r 2.687907 2 3 tcp 1040 ------- 1 1.0 3.1 121 712
r 2.695693 2 3 tcp 1040 ------- 1 1.0 3.1 122 715
r 2.70236 2 3 tcp 1040 ------- 1 1.0 3.1 123 716
r 2.709027 2 3 tcp 1040 ------- 1 1.0 3.1 124 720
r 2.716813 2 3 tcp 1040 ------- 1 1.0 3.1 125 724
r 2.7246 2 3 tcp 1040 ------- 1 1.0 3.1 126 728
r 2.732387 2 3 tcp 1040 ------- 1 1.0 3.1 127 733
r 2.740173 2 3 tcp 1040 ------- 1 1.0 3.1 128 737
r 2.74796 2 3 tcp 1040 ------- 1 1.0 3.1 129 742
r 2.755747 2 3 tcp 1040 ------- 1 1.0 3.1 130 746
r 2.763533 2 3 tcp 1040 ------- 1 1.0 3.1 131 750
r 2.77132 2 3 tcp 1040 ------- 1 1.0 3.1 132 752
r 2.777987 2 3 tcp 1040 ------- 1 1.0 3.1 133 753
r 2.784653 2 3 tcp 1040 ------- 1 1.0 3.1 134 757
r 2.79244 2 3 tcp 1040 ------- 1 1.0 3.1 135 761
r 2.800227 2 3 tcp 1040 ------- 1 1.0 3.1 136 766
r 2.808013 2 3 tcp 1040 ------- 1 1.0 3.1 137 770
r 2.8158 2 3 tcp 1040 ------- 1 1.0 3.1 138 774
r 2.823587 2 3 tcp 1040 ------- 1 1.0 3.1 139 778
r 2.831373 2 3 tcp 1040 ------- 1 1.0 3.1 140 783
r 2.84028 2 3 tcp 1040 ------- 1 1.0 3.1 141 787
r 2.846947 2 3 tcp 1040 ------- 1 1.0 3.1 142 791
r 2.853613 2 3 tcp 1040 ------- 1 1.0 3.1 143 792
r 2.86028 2 3 tcp 1040 ------- 1 1.0 3.1 144 794
r 2.868067 2 3 tcp 1040 ------- 1 1.0 3.1 145 799
r 2.875853 2 3 tcp 1040 ------- 1 1.0 3.1 146 803
r 2.88364 2 3 tcp 1040 ------- 1 1.0 3.1 147 807
r 2.891427 2 3 tcp 1040 ------- 1 1.0 3.1 148 811
r 2.899213 2 3 tcp 1040 ------- 1 1.0 3.1 149 815
r 2.90812 2 3 tcp 1040 ------- 1 1.0 3.1 150 819
r 2.915907 2 3 tcp 1040 ------- 1 1.0 3.1 151 824
r 2.923693 2 3 tcp 1040 ------- 1 1.0 3.1 152 828
r 2.93036 2 3 tcp 1040 ------- 1 1.0 3.1 153 832
r 2.938147 2 3 tcp 1040 ------- 1 1.0 3.1 154 835
r 2.944813 2 3 tcp 1040 ------- 1 1.0 3.1 155 836
r 2.95148 2 3 tcp 1040 ------- 1 1.0 3.1 156 840
r 2.959267 2 3 tcp 1040 ------- 1 1.0 3.1 157 844
r 2.967053 2 3 tcp 1040 ------- 1 1.0 3.1 158 848
r 2.97596 2 3 tcp 1040 ------- 1 1.0 3.1 159 852
r 2.983747 2 3 tcp 1040 ------- 1 1.0 3.1 160 856
r 2.991533 2 3 tcp 1040 ------- 1 1.0 3.1 161 860
r 2.99932 2 3 tcp 1040 ------- 1 1.0 3.1 162 865
r 3.005987 2 3 tcp 1040 ------- 1 1.0 3.1 163 870
r 3.013773 2 3 tcp 1040 ------- 1 1.0 3.1 164 873
r 3.02156 2 3 tcp 1040 ------- 1 1.0 3.1 165 877
r 3.029347 2 3 tcp 1040 ------- 1 1.0 3.1 166 881
r 3.036013 2 3 tcp 1040 ------- 1 1.0 3.1 167 882
r 3.04492 2 3 tcp 1040 ------- 1 1.0 3.1 169 889
r 3.052707 2 3 tcp 1040 ------- 1 1.0 3.1 170 893
r 3.060493 2 3 tcp 1040 ------- 1 1.0 3.1 171 898
r 3.06828 2 3 tcp 1040 ------- 1 1.0 3.1 172 902
r 3.099727 2 3 tcp 1040 ---A--- 1 1.0 3.1 168 933
