+ 1.5 1 2 tcp 40 ------- 1 1.0 3.1 0 134
+ 1.530963 1 2 tcp 1040 ------- 1 1.0 3.1 1 144
+ 1.530963 1 2 tcp 1040 ------- 1 1.0 3.1 2 145
+ 1.570047 1 2 tcp 1040 ------- 1 1.0 3.1 3 159
+ 1.570047 1 2 tcp 1040 ------- 1 1.0 3.1 4 160
+ 1.575593 1 2 tcp 1040 ------- 1 1.0 3.1 5 162
+ 1.575593 1 2 tcp 1040 ------- 1 1.0 3.1 6 163
+ 1.608687 1 2 tcp 1040 ------- 1 1.0 3.1 7 176
+ 1.608687 1 2 tcp 1040 ------- 1 1.0 3.1 8 177
+ 1.615353 1 2 tcp 1040 ------- 1 1.0 3.1 9 181
+ 1.615353 1 2 tcp 1040 ------- 1 1.0 3.1 10 182
+ 1.62202 1 2 tcp 1040 ------- 1 1.0 3.1 11 184
+ 1.62202 1 2 tcp 1040 ------- 1 1.0 3.1 12 185
+ 1.627567 1 2 tcp 1040 ------- 1 1.0 3.1 13 188
+ 1.627567 1 2 tcp 1040 ------- 1 1.0 3.1 14 189
+ 1.647327 1 2 tcp 1040 ------- 1 1.0 3.1 15 198
+ 1.647327 1 2 tcp 1040 ------- 1 1.0 3.1 16 199
+ 1.653993 1 2 tcp 1040 ------- 1 1.0 3.1 17 203
+ 1.653993 1 2 tcp 1040 ------- 1 1.0 3.1 18 204
+ 1.66066 1 2 tcp 1040 ------- 1 1.0 3.1 19 208
+ 1.66066 1 2 tcp 1040 ------- 1 1.0 3.1 20 209
+ 1.667327 1 2 tcp 1040 ------- 1 1.0 3.1 21 212
+ 1.667327 1 2 tcp 1040 ------- 1 1.0 3.1 22 213
+ 1.673993 1 2 tcp 1040 ------- 1 1.0 3.1 23 217
+ 1.673993 1 2 tcp 1040 ------- 1 1.0 3.1 24 218
+ 1.68066 1 2 tcp 1040 ------- 1 1.0 3.1 25 222
+ 1.68066 1 2 tcp 1040 ------- 1 1.0 3.1 26 223
+ 1.686207 1 2 tcp 1040 ------- 1 1.0 3.1 27 225
+ 1.686207 1 2 tcp 1040 ------- 1 1.0 3.1 28 226
+ 1.692873 1 2 tcp 1040 ------- 1 1.0 3.1 29 230
+ 1.692873 1 2 tcp 1040 ------- 1 1.0 3.1 30 231
+ 1.70402 1 2 tcp 1040 ------- 1 1.0 3.1 31 237
+ 1.70402 1 2 tcp 1040 ------- 1 1.0 3.1 32 238
+ 1.709567 1 2 tcp 1040 ------- 1 1.0 3.1 33 242
+ 1.709567 1 2 tcp 1040 ------- 1 1.0 3.1 34 243
+ 1.716233 1 2 tcp 1040 ------- 1 1.0 3.1 35 246
+ 1.716233 1 2 tcp 1040 ------- 1 1.0 3.1 36 247
+ 1.7229 1 2 tcp 1040 ------- 1 1.0 3.1 37 251
+ 1.7229 1 2 tcp 1040 ------- 1 1.0 3.1 38 252
+ 1.729567 1 2 tcp 1040 ------- 1 1.0 3.1 39 256
+ 1.736233 1 2 tcp 1040 ------- 1 1.0 3.1 40 260
+ 1.7429 1 2 tcp 1040 ------- 1 1.0 3.1 41 264
+ 1.749567 1 2 tcp 1040 ------- 1 1.0 3.1 42 267
+ 1.756233 1 2 tcp 1040 ------- 1 1.0 3.1 43 271
+ 1.7629 1 2 tcp 1040 ------- 1 1.0 3.1 44 275
+ 1.769567 1 2 tcp 1040 ------- 1 1.0 3.1 45 279
+ 1.775113 1 2 tcp 1040 ------- 1 1.0 3.1 46 282
+ 1.78178 1 2 tcp 1040 ------- 1 1.0 3.1 47 286
+ 1.788447 1 2 tcp 1040 ------- 1 1.0 3.1 48 290
+ 1.795113 1 2 tcp 1040 ------- 1 1.0 3.1 49 293
+ 1.817353 1 2 tcp 1040 ---A--- 1 1.0 3.1 30 303
+ 1.8941 1 2 tcp 1040 ------- 1 1.0 3.1 32 333
+ 1.8941 1 2 tcp 1040 ------- 1 1.0 3.1 33 334
+ 1.933797 1 2 tcp 1040 ------- 1 1.0 3.1 34 348
+ 1.933797 1 2 tcp 1040 ------- 1 1.0 3.1 35 349
+ 1.939343 1 2 tcp 1040 ------- 1 1.0 3.1 36 351
+ 1.939343 1 2 tcp 1040 ------- 1 1.0 3.1 37 352
+ 1.939343 1 2 tcp 1040 ------- 1 1.0 3.1 38 353
+ 1.972437 1 2 tcp 1040 ------- 1 1.0 3.1 39 366
+ 1.979103 1 2 tcp 1040 ------- 1 1.0 3.1 40 370
+ 1.979103 1 2 tcp 1040 ------- 1 1.0 3.1 41 371
+ 1.98577 1 2 tcp 1040 ------- 1 1.0 3.1 42 374
+ 1.991317 1 2 tcp 1040 ------- 1 1.0 3.1 43 377
+ 1.991317 1 2 tcp 1040 ------- 1 1.0 3.1 44 378
+ 1.997983 1 2 tcp 1040 ------- 1 1.0 3.1 45 382
+ 2.01137 1 2 tcp 1040 ------- 1 1.0 3.1 46 388
+ 2.01137 1 2 tcp 1040 ------- 1 1.0 3.1 47 389
+ 2.01137 1 2 tcp 1040 ------- 1 1.0 3.1 48 390
+ 2.01137 1 2 tcp 1040 ------- 1 1.0 3.1 49 391
+ 2.01137 1 2 tcp 1040 ------- 1 1.0 3.1 50 392
+ 2.019157 1 2 tcp 1040 ------- 1 1.0 3.1 51 396
+ 2.025823 1 2 tcp 1040 ------- 1 1.0 3.1 52 400
+ 2.045823 1 2 tcp 1040 ------- 1 1.0 3.1 53 408
+ 2.045823 1 2 tcp 1040 ------- 1 1.0 3.1 54 409
+ 2.05249 1 2 tcp 1040 ------- 1 1.0 3.1 55 413
+ 2.062517 1 2 tcp 1040 ------- 1 1.0 3.1 56 419
+ 2.069183 1 2 tcp 1040 ------- 1 1.0 3.1 57 423
+ 2.069183 1 2 tcp 1040 ------- 1 1.0 3.1 58 424
+ 2.07473 1 2 tcp 1040 ------- 1 1.0 3.1 59 427
+ 2.081397 1 2 tcp 1040 ------- 1 1.0 3.1 60 431
+ 2.09361 1 2 tcp 1040 ------- 1 1.0 3.1 61 436
+ 2.100277 1 2 tcp 1040 ------- 1 1.0 3.1 62 440
+ 2.111423 1 2 tcp 1040 ------- 1 1.0 3.1 63 446
+ 2.11809 1 2 tcp 1040 ------- 1 1.0 3.1 64 450
+ 2.124757 1 2 tcp 1040 ------- 1 1.0 3.1 65 452
+ 2.132543 1 2 tcp 1040 ------- 1 1.0 3.1 66 458
+ 2.14033 1 2 tcp 1040 ------- 1 1.0 3.1 67 462
+ 2.146997 1 2 tcp 1040 ------- 1 1.0 3.1 68 465
+ 2.153663 1 2 tcp 1040 ------- 1 1.0 3.1 69 468
+ 2.16033 1 2 tcp 1040 ------- 1 1.0 3.1 70 472
+ 2.170357 1 2 tcp 1040 ------- 1 1.0 3.1 71 477
+ 2.170357 1 2 tcp 1040 ------- 1 1.0 3.1 72 478
+ 2.177023 1 2 tcp 1040 ------- 1 1.0 3.1 73 481
+ 2.18593 1 2 tcp 1040 ------- 1 1.0 3.1 74 486
+ 2.193717 1 2 tcp 1040 ------- 1 1.0 3.1 75 490
+ 2.201503 1 2 tcp 1040 ------- 1 1.0 3.1 76 494
+ 2.20929 1 2 tcp 1040 ------- 1 1.0 3.1 77 498
+ 2.217077 1 2 tcp 1040 ------- 1 1.0 3.1 78 502
+ 2.224863 1 2 tcp 1040 ------- 1 1.0 3.1 79 506
+ 2.23265 1 2 tcp 1040 ------- 1 1.0 3.1 80 510
+ 2.240437 1 2 tcp 1040 ------- 1 1.0 3.1 81 515
+ 2.248223 1 2 tcp 1040 ------- 1 1.0 3.1 82 519
+ 2.25489 1 2 tcp 1040 ------- 1 1.0 3.1 83 523
+ 2.25489 1 2 tcp 1040 ------- 1 1.0 3.1 84 524
+ 2.261557 1 2 tcp 1040 ------- 1 1.0 3.1 85 527
+ 2.269343 1 2 tcp 1040 ------- 1 1.0 3.1 86 531
+ 2.27713 1 2 tcp 1040 ------- 1 1.0 3.1 87 535
+ 2.284917 1 2 tcp 1040 ------- 1 1.0 3.1 88 539
+ 2.293823 1 2 tcp 1040 ------- 1 1.0 3.1 89 544
+ 2.30161 1 2 tcp 1040 ------- 1 1.0 3.1 90 549
+ 2.309397 1 2 tcp 1040 ------- 1 1.0 3.1 91 553
+ 2.316063 1 2 tcp 1040 ------- 1 1.0 3.1 92 555
+ 2.32385 1 2 tcp 1040 ------- 1 1.0 3.1 93 560
+ 2.331637 1 2 tcp 1040 ------- 1 1.0 3.1 94 565
+ 2.339423 1 2 tcp 1040 ------- 1 1.0 3.1 95 568
+ 2.34497 1 2 tcp 1040 ------- 1 1.0 3.1 96 571
+ 2.354997 1 2 tcp 1040 ------- 1 1.0 3.1 97 576
+ 2.362783 1 2 tcp 1040 ------- 1 1.0 3.1 98 580
+ 2.37057 1 2 tcp 1040 ---A--- 1 1.0 3.1 85 584
+ 2.450677 1 2 tcp 1040 ------- 1 1.0 3.1 91 615
+ 2.450677 1 2 tcp 1040 ------- 1 1.0 3.1 92 616
+ 2.489317 1 2 tcp 1040 ------- 1 1.0 3.1 99 630
+ 2.489317 1 2 tcp 1040 ------- 1 1.0 3.1 100 631
+ 2.489317 1 2 tcp 1040 ------- 1 1.0 3.1 101 632
+ 2.495983 1 2 tcp 1040 ------- 1 1.0 3.1 102 634
+ 2.527957 1 2 tcp 1040 ------- 1 1.0 3.1 103 647
+ 2.534623 1 2 tcp 1040 ------- 1 1.0 3.1 104 651
+ 2.534623 1 2 tcp 1040 ------- 1 1.0 3.1 105 652
+ 2.54129 1 2 tcp 1040 ------- 1 1.0 3.1 106 655
+ 2.54129 1 2 tcp 1040 ------- 1 1.0 3.1 107 656
+ 2.546837 1 2 tcp 1040 ------- 1 1.0 3.1 108 658
+ 2.567547 1 2 tcp 1040 ------- 1 1.0 3.1 109 668
+ 2.574213 1 2 tcp 1040 ------- 1 1.0 3.1 110 671
+ 2.58088 1 2 tcp 1040 ------- 1 1.0 3.1 111 675
+ 2.587547 1 2 tcp 1040 ------- 1 1.0 3.1 112 679
+ 2.594213 1 2 tcp 1040 ------- 1 1.0 3.1 113 682
+ 2.60088 1 2 tcp 1040 ------- 1 1.0 3.1 114 685
+ 2.60088 1 2 tcp 1040 ------- 1 1.0 3.1 115 686
+ 2.612027 1 2 tcp 1040 ------- 1 1.0 3.1 116 691
+ 2.619813 1 2 tcp 1040 ------- 1 1.0 3.1 117 696
+ 2.6276 1 2 tcp 1040 ------- 1 1.0 3.1 118 701
+ 2.634267 1 2 tcp 1040 ------- 1 1.0 3.1 119 703
+ 2.642053 1 2 tcp 1040 ------- 1 1.0 3.1 120 708
+ 2.64984 1 2 tcp 1040 ------- 1 1.0 3.1 121 712
+ 2.656507 1 2 tcp 1040 ------- 1 1.0 3.1 122 715
+ 2.656507 1 2 tcp 1040 ------- 1 1.0 3.1 123 716
+ 2.664293 1 2 tcp 1040 ------- 1 1.0 3.1 124 720
+ 2.67208 1 2 tcp 1040 ------- 1 1.0 3.1 125 724
+ 2.679867 1 2 tcp 1040 ------- 1 1.0 3.1 126 728
+ 2.687653 1 2 tcp 1040 ------- 1 1.0 3.1 127 733
+ 2.69544 1 2 tcp 1040 ------- 1 1.0 3.1 128 737
+ 2.703227 1 2 tcp 1040 ------- 1 1.0 3.1 129 742
+ 2.711013 1 2 tcp 1040 ------- 1 1.0 3.1 130 746
+ 2.71768 1 2 tcp 1040 ------- 1 1.0 3.1 131 750
+ 2.724347 1 2 tcp 1040 ------- 1 1.0 3.1 132 752
+ 2.724347 1 2 tcp 1040 ------- 1 1.0 3.1 133 753
+ 2.732133 1 2 tcp 1040 ------- 1 1.0 3.1 134 757
+ 2.73992 1 2 tcp 1040 ------- 1 1.0 3.1 135 761
+ 2.747707 1 2 tcp 1040 ------- 1 1.0 3.1 136 766
+ 2.755493 1 2 tcp 1040 ------- 1 1.0 3.1 137 770
+ 2.76328 1 2 tcp 1040 ------- 1 1.0 3.1 138 774
+ 2.771067 1 2 tcp 1040 ------- 1 1.0 3.1 139 778
+ 2.778853 1 2 tcp 1040 ------- 1 1.0 3.1 140 783
+ 2.78664 1 2 tcp 1040 ------- 1 1.0 3.1 141 787
+ 2.793307 1 2 tcp 1040 ------- 1 1.0 3.1 142 791
+ 2.793307 1 2 tcp 1040 ------- 1 1.0 3.1 143 792
+ 2.799973 1 2 tcp 1040 ------- 1 1.0 3.1 144 794
+ 2.80776 1 2 tcp 1040 ------- 1 1.0 3.1 145 799
+ 2.815547 1 2 tcp 1040 ------- 1 1.0 3.1 146 803
+ 2.823333 1 2 tcp 1040 ------- 1 1.0 3.1 147 807
+ 2.83112 1 2 tcp 1040 ------- 1 1.0 3.1 148 811
+ 2.838907 1 2 tcp 1040 ------- 1 1.0 3.1 149 815
+ 2.846693 1 2 tcp 1040 ------- 1 1.0 3.1 150 819
+ 2.8556 1 2 tcp 1040 ------- 1 1.0 3.1 151 824
+ 2.862267 1 2 tcp 1040 ------- 1 1.0 3.1 152 828
+ 2.868933 1 2 tcp 1040 ------- 1 1.0 3.1 153 832
+ 2.8756 1 2 tcp 1040 ------- 1 1.0 3.1 154 835
+ 2.8756 1 2 tcp 1040 ------- 1 1.0 3.1 155 836
+ 2.883387 1 2 tcp 1040 ------- 1 1.0 3.1 156 840
+ 2.891173 1 2 tcp 1040 ------- 1 1.0 3.1 157 844
+ 2.89896 1 2 tcp 1040 ------- 1 1.0 3.1 158 848
+ 2.906747 1 2 tcp 1040 ------- 1 1.0 3.1 159 852
+ 2.914533 1 2 tcp 1040 ------- 1 1.0 3.1 160 856
+ 2.92344 1 2 tcp 1040 ------- 1 1.0 3.1 161 860
+ 2.931227 1 2 tcp 1040 ------- 1 1.0 3.1 162 865
+ 2.939013 1 2 tcp 1040 ------- 1 1.0 3.1 163 870
+ 2.94568 1 2 tcp 1040 ------- 1 1.0 3.1 164 873
+ 2.953467 1 2 tcp 1040 ------- 1 1.0 3.1 165 877
+ 2.960133 1 2 tcp 1040 ------- 1 1.0 3.1 166 881
+ 2.960133 1 2 tcp 1040 ------- 1 1.0 3.1 167 882
+ 2.9668 1 2 tcp 1040 ------- 1 1.0 3.1 168 885
+ 2.974587 1 2 tcp 1040 ------- 1 1.0 3.1 169 889
+ 2.982373 1 2 tcp 1040 ------- 1 1.0 3.1 170 893
+ 2.99128 1 2 tcp 1040 ------- 1 1.0 3.1 171 898
+ 2.999067 1 2 tcp 1040 ------- 1 1.0 3.1 172 902
+ 3.075813 1 2 tcp 1040 ---A--- 1 1.0 3.1 168 933
